<?xml version="1.0" encoding="UTF-8"?>

<!-- generated on 2025-10-05 10:03:16 by Eclipse SUMO sumo Version 1.24.0
<sumoConfiguration xmlns:xsi="http://www.w3.org/2001/XMLSchema-instance" xsi:noNamespaceSchemaLocation="http://sumo.dlr.de/xsd/sumoConfiguration.xsd">

    <input>
        <net-file value="C:\Projects\FDRL-Traffic\FDRL\sumo_files\Berlin\osm.net.xml.gz"/>
        <route-files value="C:\Projects\FDRL-Traffic\FDRL\sumo_files\Berlin\osm_pt.rou.xml,C:\Projects\FDRL-Traffic\FDRL\sumo_files\Berlin\osm.bus.trips.xml,C:\Projects\FDRL-Traffic\FDRL\sumo_files\Berlin\osm.motorcycle.trips.xml,C:\Projects\FDRL-Traffic\FDRL\sumo_files\Berlin\osm.passenger.trips.xml,C:\Projects\FDRL-Traffic\FDRL\sumo_files\Berlin\osm.truck.trips.xml"/>
        <additional-files value="C:\Projects\FDRL-Traffic\FDRL\sumo_files\Berlin\osm.poly.xml.gz,C:\Projects\FDRL-Traffic\FDRL\sumo_files\Berlin\osm_stops.add.xml,C:\Projects\FDRL-Traffic\FDRL\sumo_files\Berlin\output.add.xml"/>
    </input>

    <output>
        <tripinfo-output value="C:\Projects\FDRL-Traffic\FDRL\sumo_files\Berlin\tripinfos.xml"/>
        <stop-output value="C:\Projects\FDRL-Traffic\FDRL\sumo_files\Berlin\stopinfos.xml"/>
        <statistic-output value="C:\Projects\FDRL-Traffic\FDRL\sumo_files\Berlin\stats.xml"/>
    </output>

    <processing>
        <ignore-route-errors value="true"/>
        <tls.actuated.jam-threshold value="30"/>
    </processing>

    <routing>
        <device.rerouting.adaptation-steps value="18"/>
        <device.rerouting.adaptation-interval value="10"/>
    </routing>

    <report>
        <verbose value="true"/>
        <duration-log.statistics value="true"/>
        <no-step-log value="true"/>
    </report>

    <traci_server>
        <remote-port value="61370"/>
    </traci_server>

    <gui_only>
        <gui-settings-file value="C:\Projects\FDRL-Traffic\FDRL\sumo_files\Berlin\osm.view.xml"/>
    </gui_only>

</sumoConfiguration>
-->

<meandata xmlns:xsi="http://www.w3.org/2001/XMLSchema-instance" xsi:noNamespaceSchemaLocation="http://sumo.dlr.de/xsd/meandata_file.xsd">
    <interval begin="0.00" end="3600.00" id="wizard_example">
        <edge id="-1015063876" sampledSeconds="0.00" departed="0" arrived="0" entered="0" left="0" laneChangedFrom="0" laneChangedTo="0"/>
        <edge id="-1015063877" sampledSeconds="0.00" departed="0" arrived="0" entered="0" left="0" laneChangedFrom="0" laneChangedTo="0"/>
        <edge id="-1015063879" sampledSeconds="0.00" departed="0" arrived="0" entered="0" left="0" laneChangedFrom="0" laneChangedTo="0"/>
        <edge id="-1015063883" sampledSeconds="0.00" departed="0" arrived="0" entered="0" left="0" laneChangedFrom="0" laneChangedTo="0"/>
        <edge id="-1015063886" sampledSeconds="0.00" departed="0" arrived="0" entered="0" left="0" laneChangedFrom="0" laneChangedTo="0"/>
        <edge id="-1020468799" sampledSeconds="57.53" traveltime="0.04" overlapTraveltime="1.34" density="79.90" laneDensity="79.90" occupancy="1.55" waitingTime="0.00" timeLoss="17.59" speed="5.77" speedRelative="0.69" departed="2" arrived="2" entered="55" left="55" laneChangedFrom="0" laneChangedTo="0"/>
        <edge id="-1020468803" sampledSeconds="50.20" traveltime="0.44" overlapTraveltime="1.71" density="4.33" laneDensity="4.33" occupancy="0.97" waitingTime="0.00" timeLoss="14.05" speed="5.95" speedRelative="0.71" departed="6" arrived="5" entered="31" left="32" laneChangedFrom="0" laneChangedTo="0"/>
        <edge id="-1024034686#0" sampledSeconds="45.86" traveltime="0.02" overlapTraveltime="0.88" density="84.92" laneDensity="84.92" occupancy="1.24" waitingTime="0.00" timeLoss="4.93" speed="7.32" speedRelative="0.88" departed="2" arrived="2" entered="63" left="63" laneChangedFrom="0" laneChangedTo="0"/>
        <edge id="-1024034686#1" sampledSeconds="72.31" traveltime="0.04" overlapTraveltime="1.15" density="100.43" laneDensity="100.43" occupancy="1.93" waitingTime="0.00" timeLoss="13.05" speed="6.06" speedRelative="0.73" departed="3" arrived="1" entered="78" left="80" laneChangedFrom="0" laneChangedTo="0"/>
        <edge id="-1024034687#0" sampledSeconds="70.93" traveltime="0.05" overlapTraveltime="1.72" density="109.45" laneDensity="109.45" occupancy="1.90" waitingTime="0.00" timeLoss="23.39" speed="3.55" speedRelative="0.43" departed="0" arrived="14" entered="51" left="37" laneChangedFrom="0" laneChangedTo="0"/>
        <edge id="-1024034687#1" sampledSeconds="67.21" traveltime="0.43" overlapTraveltime="1.38" density="5.96" laneDensity="5.96" occupancy="1.19" waitingTime="0.00" timeLoss="10.30" speed="6.94" speedRelative="0.83" departed="1" arrived="3" entered="53" left="51" laneChangedFrom="0" laneChangedTo="0"/>
        <edge id="-1024034687#11" sampledSeconds="51.09" traveltime="0.02" overlapTraveltime="0.95" density="83.47" laneDensity="83.47" occupancy="1.37" waitingTime="0.00" timeLoss="9.13" speed="6.75" speedRelative="0.81" departed="3" arrived="2" entered="63" left="64" laneChangedFrom="0" laneChangedTo="0"/>
        <edge id="-1024034687#2" sampledSeconds="49.21" traveltime="0.06" overlapTraveltime="1.06" density="33.34" laneDensity="33.34" occupancy="1.28" waitingTime="0.00" timeLoss="9.53" speed="6.67" speedRelative="0.80" departed="3" arrived="4" entered="54" left="53" laneChangedFrom="0" laneChangedTo="0"/>
        <edge id="-1024034687#3" sampledSeconds="43.86" traveltime="0.05" overlapTraveltime="0.94" density="35.83" laneDensity="35.83" occupancy="1.15" waitingTime="0.00" timeLoss="5.04" speed="7.31" speedRelative="0.88" departed="2" arrived="3" entered="55" left="54" laneChangedFrom="0" laneChangedTo="0"/>
        <edge id="-1024034687#5" sampledSeconds="145.65" traveltime="1.63" overlapTraveltime="2.41" density="3.50" laneDensity="3.50" occupancy="1.30" waitingTime="0.00" timeLoss="19.24" speed="7.15" speedRelative="0.86" departed="0" arrived="7" entered="62" left="55" laneChangedFrom="0" laneChangedTo="0"/>
        <edge id="-1024034687#6" sampledSeconds="197.95" traveltime="2.46" overlapTraveltime="3.25" density="3.19" laneDensity="3.19" occupancy="1.31" waitingTime="1.00" timeLoss="29.24" speed="7.02" speedRelative="0.84" departed="2" arrived="0" entered="60" left="62" laneChangedFrom="0" laneChangedTo="0"/>
        <edge id="-1024034687#7" sampledSeconds="59.66" traveltime="0.21" overlapTraveltime="1.11" density="10.62" laneDensity="10.62" occupancy="1.30" waitingTime="0.00" timeLoss="8.71" speed="7.05" speedRelative="0.85" departed="3" arrived="2" entered="59" left="60" laneChangedFrom="0" laneChangedTo="0"/>
        <edge id="-1024034687#8" sampledSeconds="371.92" traveltime="5.50" overlapTraveltime="6.21" density="2.53" laneDensity="2.53" occupancy="1.17" waitingTime="0.00" timeLoss="37.57" speed="7.43" speedRelative="0.89" departed="0" arrived="1" entered="60" left="59" laneChangedFrom="0" laneChangedTo="0"/>
        <edge id="-1024034687#9" sampledSeconds="46.14" traveltime="0.03" overlapTraveltime="0.89" density="64.08" laneDensity="64.08" occupancy="1.23" waitingTime="0.00" timeLoss="4.94" speed="7.33" speedRelative="0.88" departed="0" arrived="4" entered="64" left="60" laneChangedFrom="0" laneChangedTo="0"/>
        <edge id="-102984483#0" sampledSeconds="1374.19" traveltime="2.69" overlapTraveltime="5.46" density="40.61" laneDensity="40.61" occupancy="18.57" waitingTime="805.00" timeLoss="1048.76" speed="2.92" speedRelative="0.21" departed="2" arrived="2" entered="275" left="275" laneChangedFrom="0" laneChangedTo="0" teleported="1"/>
        <edge id="-102984483#1" sampledSeconds="6761.85" traveltime="23.55" overlapTraveltime="24.00" density="30.48" laneDensity="30.48" occupancy="13.73" waitingTime="4537.00" timeLoss="5408.93" speed="2.76" speedRelative="0.20" departed="3" arrived="4" entered="277" left="276" laneChangedFrom="0" laneChangedTo="0"/>
        <edge id="-1052675176#0" sampledSeconds="340.26" traveltime="2.25" overlapTraveltime="3.02" density="6.16" laneDensity="6.16" occupancy="2.41" waitingTime="9.00" timeLoss="51.71" speed="6.95" speedRelative="0.83" departed="3" arrived="2" entered="111" left="112" laneChangedFrom="0" laneChangedTo="0"/>
        <edge id="-1052675176#1" sampledSeconds="220.74" traveltime="1.26" overlapTraveltime="2.05" density="6.64" laneDensity="6.64" occupancy="2.24" waitingTime="0.00" timeLoss="20.72" speed="7.44" speedRelative="0.89" departed="0" arrived="0" entered="111" left="111" laneChangedFrom="0" laneChangedTo="0"/>
        <edge id="-1052675176#2" sampledSeconds="87.06" traveltime="0.03" overlapTraveltime="0.99" density="120.92" laneDensity="120.92" occupancy="2.33" waitingTime="0.00" timeLoss="9.72" speed="7.33" speedRelative="0.88" departed="5" arrived="1" entered="107" left="111" laneChangedFrom="0" laneChangedTo="0"/>
        <edge id="-1052675176#3" sampledSeconds="326.49" traveltime="2.25" overlapTraveltime="3.05" density="5.77" laneDensity="5.77" occupancy="2.38" waitingTime="1.00" timeLoss="43.73" speed="7.09" speedRelative="0.85" departed="3" arrived="2" entered="106" left="107" laneChangedFrom="0" laneChangedTo="0"/>
        <edge id="-1052675176#5" sampledSeconds="350.25" traveltime="2.51" overlapTraveltime="3.29" density="5.64" laneDensity="5.64" occupancy="2.34" waitingTime="0.00" timeLoss="49.37" speed="7.04" speedRelative="0.85" departed="2" arrived="2" entered="106" left="106" laneChangedFrom="0" laneChangedTo="0"/>
        <edge id="-1052675177#0" sampledSeconds="2647.47" traveltime="7.91" overlapTraveltime="9.38" density="33.63" laneDensity="33.63" occupancy="19.22" waitingTime="983.00" timeLoss="1679.29" speed="3.03" speedRelative="0.36" departed="1" arrived="2" entered="294" left="292" laneChangedFrom="0" laneChangedTo="0"/>
        <edge id="-1052675177#2" sampledSeconds="1433.23" traveltime="6.49" overlapTraveltime="8.41" density="49.58" laneDensity="49.58" occupancy="24.11" waitingTime="805.00" timeLoss="1133.51" speed="1.73" speedRelative="0.21" departed="6" arrived="1" entered="181" left="186" laneChangedFrom="0" laneChangedTo="0"/>
        <edge id="-1052675227#0" sampledSeconds="44.44" traveltime="0.03" overlapTraveltime="0.99" density="61.72" laneDensity="61.72" occupancy="1.19" waitingTime="0.00" timeLoss="3.66" speed="7.63" speedRelative="0.92" departed="1" arrived="4" entered="56" left="53" laneChangedFrom="0" laneChangedTo="0"/>
        <edge id="-1052675227#2" sampledSeconds="48.29" traveltime="0.03" overlapTraveltime="1.00" density="67.07" laneDensity="67.07" occupancy="1.30" waitingTime="0.00" timeLoss="4.80" speed="7.52" speedRelative="0.90" departed="1" arrived="5" entered="60" left="56" laneChangedFrom="0" laneChangedTo="0"/>
        <edge id="-1052675227#3" sampledSeconds="111.28" traveltime="1.07" overlapTraveltime="1.96" density="4.08" laneDensity="4.08" occupancy="1.37" waitingTime="0.00" timeLoss="14.08" speed="7.26" speedRelative="0.87" departed="1" arrived="0" entered="59" left="60" laneChangedFrom="0" laneChangedTo="0"/>
        <edge id="-1052675227#4" sampledSeconds="54.74" traveltime="0.03" overlapTraveltime="1.20" density="76.03" laneDensity="76.03" occupancy="1.47" waitingTime="0.00" timeLoss="10.29" speed="6.78" speedRelative="0.81" departed="2" arrived="1" entered="58" left="59" laneChangedFrom="0" laneChangedTo="0"/>
        <edge id="-1052675227#5" sampledSeconds="100.71" traveltime="0.80" overlapTraveltime="1.83" density="4.82" laneDensity="4.82" occupancy="1.47" waitingTime="0.00" timeLoss="17.26" speed="6.89" speedRelative="0.83" departed="2" arrived="2" entered="58" left="58" laneChangedFrom="0" laneChangedTo="0"/>
        <edge id="-1052675227#6" sampledSeconds="308.12" traveltime="4.49" overlapTraveltime="5.26" density="2.68" laneDensity="2.68" occupancy="1.28" waitingTime="0.00" timeLoss="41.02" speed="7.17" speedRelative="0.86" departed="5" arrived="1" entered="55" left="58" laneChangedFrom="0" laneChangedTo="0"/>
        <edge id="-1052675228" sampledSeconds="913.67" traveltime="14.48" overlapTraveltime="15.32" density="2.99" laneDensity="2.99" occupancy="1.23" waitingTime="91.00" timeLoss="263.91" speed="5.83" speedRelative="0.70" departed="3" arrived="3" entered="57" left="56" laneChangedFrom="0" laneChangedTo="0"/>
        <edge id="-1052734946" sampledSeconds="43.07" traveltime="3.21" overlapTraveltime="4.01" density="0.51" laneDensity="0.51" occupancy="0.23" waitingTime="0.00" timeLoss="4.34" speed="7.16" speedRelative="0.86" departed="0" arrived="11" entered="12" left="1" laneChangedFrom="0" laneChangedTo="0"/>
        <edge id="-1052756577" sampledSeconds="87.09" traveltime="12.11" overlapTraveltime="12.79" density="0.27" laneDensity="0.27" occupancy="0.13" waitingTime="0.00" timeLoss="8.06" speed="7.28" speedRelative="0.87" departed="0" arrived="7" entered="7" left="0" laneChangedFrom="0" laneChangedTo="0"/>
        <edge id="-1052756578#0" sampledSeconds="112.30" traveltime="2.42" overlapTraveltime="3.27" density="2.19" laneDensity="2.19" occupancy="0.81" waitingTime="1.00" timeLoss="29.43" speed="5.84" speedRelative="0.70" departed="2" arrived="1" entered="33" left="34" laneChangedFrom="0" laneChangedTo="0"/>
        <edge id="-1052756578#1" sampledSeconds="191.05" traveltime="4.46" overlapTraveltime="5.09" density="1.65" laneDensity="1.65" occupancy="0.68" waitingTime="0.00" timeLoss="21.68" speed="7.25" speedRelative="0.87" departed="2" arrived="5" entered="36" left="33" laneChangedFrom="0" laneChangedTo="0"/>
        <edge id="-1052756578#2" sampledSeconds="253.71" traveltime="5.89" overlapTraveltime="6.51" density="1.66" laneDensity="1.66" occupancy="0.68" waitingTime="0.00" timeLoss="30.54" speed="7.23" speedRelative="0.87" departed="0" arrived="3" entered="39" left="36" laneChangedFrom="0" laneChangedTo="0"/>
        <edge id="-1052757284#0" sampledSeconds="360.30" traveltime="9.26" overlapTraveltime="10.01" density="1.57" laneDensity="1.57" occupancy="0.67" waitingTime="0.00" timeLoss="53.84" speed="6.86" speedRelative="0.82" departed="1" arrived="0" entered="35" left="36" laneChangedFrom="0" laneChangedTo="0"/>
        <edge id="-1052757284#1" sampledSeconds="212.20" traveltime="4.68" overlapTraveltime="5.35" density="1.80" laneDensity="1.80" occupancy="0.74" waitingTime="0.00" timeLoss="28.34" speed="7.04" speedRelative="0.85" departed="1" arrived="5" entered="39" left="35" laneChangedFrom="0" laneChangedTo="0"/>
        <edge id="-1052758514#0" sampledSeconds="185.73" traveltime="11.74" overlapTraveltime="12.46" density="0.64" laneDensity="0.64" occupancy="0.24" waitingTime="0.00" timeLoss="27.51" speed="6.76" speedRelative="0.81" departed="1" arrived="4" entered="14" left="11" laneChangedFrom="0" laneChangedTo="0"/>
        <edge id="-1052758514#1" sampledSeconds="347.53" traveltime="5.76" overlapTraveltime="6.84" density="3.52" laneDensity="3.52" occupancy="1.85" waitingTime="64.00" timeLoss="140.01" speed="4.91" speedRelative="0.59" departed="1" arrived="2" entered="51" left="50" laneChangedFrom="0" laneChangedTo="0"/>
        <edge id="-1052758758#0" sampledSeconds="990.11" traveltime="8.41" overlapTraveltime="9.34" density="4.69" laneDensity="4.69" occupancy="2.29" waitingTime="10.00" timeLoss="173.30" speed="6.87" speedRelative="0.82" departed="1" arrived="5" entered="106" left="101" laneChangedFrom="0" laneChangedTo="0"/>
        <edge id="-1052758758#1" sampledSeconds="1156.65" traveltime="10.01" overlapTraveltime="10.73" density="4.32" laneDensity="4.32" occupancy="2.13" waitingTime="0.00" timeLoss="124.06" speed="7.44" speedRelative="0.89" departed="2" arrived="2" entered="106" left="106" laneChangedFrom="0" laneChangedTo="0"/>
        <edge id="-1052758759" sampledSeconds="1382.27" traveltime="13.84" overlapTraveltime="14.59" density="3.83" laneDensity="3.83" occupancy="1.95" waitingTime="3.00" timeLoss="153.40" speed="7.25" speedRelative="0.87" departed="4" arrived="4" entered="91" left="91" laneChangedFrom="0" laneChangedTo="0"/>
        <edge id="-1053278664" sampledSeconds="0.00" departed="0" arrived="0" entered="0" left="0" laneChangedFrom="0" laneChangedTo="0"/>
        <edge id="-105593532#0" sampledSeconds="0.00" departed="0" arrived="0" entered="0" left="0" laneChangedFrom="0" laneChangedTo="0"/>
        <edge id="-105593532#1" sampledSeconds="0.00" departed="0" arrived="0" entered="0" left="0" laneChangedFrom="0" laneChangedTo="0"/>
        <edge id="-1056637173" sampledSeconds="0.00" departed="0" arrived="0" entered="0" left="0" laneChangedFrom="0" laneChangedTo="0"/>
        <edge id="-1070046769#0" sampledSeconds="0.00" departed="0" arrived="0" entered="0" left="0" laneChangedFrom="0" laneChangedTo="0"/>
        <edge id="-1070046769#1" sampledSeconds="0.00" departed="0" arrived="0" entered="0" left="0" laneChangedFrom="0" laneChangedTo="0"/>
        <edge id="-1071210942" sampledSeconds="0.00" departed="0" arrived="0" entered="0" left="0" laneChangedFrom="0" laneChangedTo="0"/>
        <edge id="-1077117221#1" sampledSeconds="0.00" departed="0" arrived="0" entered="0" left="0" laneChangedFrom="0" laneChangedTo="0"/>
        <edge id="-1085484772" sampledSeconds="0.00" departed="0" arrived="0" entered="0" left="0" laneChangedFrom="0" laneChangedTo="0"/>
        <edge id="-1085484775" sampledSeconds="0.00" departed="0" arrived="0" entered="0" left="0" laneChangedFrom="0" laneChangedTo="0"/>
        <edge id="-1085484776" sampledSeconds="0.00" departed="0" arrived="0" entered="0" left="0" laneChangedFrom="0" laneChangedTo="0"/>
        <edge id="-1094013594" sampledSeconds="0.00" departed="0" arrived="0" entered="0" left="0" laneChangedFrom="0" laneChangedTo="0"/>
        <edge id="-1094013595" sampledSeconds="0.00" departed="0" arrived="0" entered="0" left="0" laneChangedFrom="0" laneChangedTo="0"/>
        <edge id="-1095165529" sampledSeconds="10.52" overlapTraveltime="1.39" density="14.61" laneDensity="14.61" occupancy="0.29" waitingTime="0.00" timeLoss="4.80" speed="4.60" speedRelative="0.55" departed="8" arrived="0" entered="0" left="8" laneChangedFrom="0" laneChangedTo="0"/>
        <edge id="-1095407474#1" sampledSeconds="420.93" traveltime="5.55" overlapTraveltime="6.30" density="2.94" laneDensity="2.94" occupancy="1.33" waitingTime="0.00" timeLoss="52.91" speed="7.16" speedRelative="0.86" departed="2" arrived="0" entered="65" left="67" laneChangedFrom="0" laneChangedTo="0"/>
        <edge id="-1095407474#2" sampledSeconds="388.70" traveltime="4.88" overlapTraveltime="5.58" density="3.10" laneDensity="3.10" occupancy="1.36" waitingTime="0.00" timeLoss="47.53" speed="7.19" speedRelative="0.86" departed="1" arrived="5" entered="69" left="65" laneChangedFrom="0" laneChangedTo="0"/>
        <edge id="-1095407474#3" sampledSeconds="443.15" traveltime="5.47" overlapTraveltime="6.16" density="3.16" laneDensity="3.16" occupancy="1.38" waitingTime="0.00" timeLoss="55.56" speed="7.16" speedRelative="0.86" departed="1" arrived="3" entered="71" left="69" laneChangedFrom="0" laneChangedTo="0"/>
        <edge id="-1097500694" sampledSeconds="0.00" departed="0" arrived="0" entered="0" left="0" laneChangedFrom="0" laneChangedTo="0"/>
        <edge id="-1097500696" sampledSeconds="0.00" departed="0" arrived="0" entered="0" left="0" laneChangedFrom="0" laneChangedTo="0"/>
        <edge id="-1098856682#0" sampledSeconds="1242.04" traveltime="7.08" overlapTraveltime="7.76" density="6.73" laneDensity="6.73" occupancy="3.06" waitingTime="0.00" timeLoss="146.85" speed="7.27" speedRelative="0.87" departed="2" arrived="0" entered="158" left="160" laneChangedFrom="0" laneChangedTo="0"/>
        <edge id="-1098856683#0" sampledSeconds="564.87" traveltime="2.57" overlapTraveltime="3.48" density="11.24" laneDensity="11.24" occupancy="4.53" waitingTime="40.00" timeLoss="180.74" speed="5.59" speedRelative="0.67" departed="3" arrived="3" entered="163" left="163" laneChangedFrom="0" laneChangedTo="0"/>
        <edge id="-1098856683#1" sampledSeconds="497.70" traveltime="2.30" overlapTraveltime="3.11" density="10.49" laneDensity="10.49" occupancy="4.05" waitingTime="30.00" timeLoss="136.23" speed="5.99" speedRelative="0.72" departed="2" arrived="0" entered="161" left="163" laneChangedFrom="0" laneChangedTo="0"/>
        <edge id="-1098856743" sampledSeconds="311.51" traveltime="9.57" overlapTraveltime="10.49" density="1.43" laneDensity="1.43" occupancy="0.65" waitingTime="15.00" timeLoss="73.91" speed="6.23" speedRelative="0.75" departed="2" arrived="5" entered="28" left="25" laneChangedFrom="0" laneChangedTo="0"/>
        <edge id="-1098856744" sampledSeconds="394.50" traveltime="4.29" overlapTraveltime="5.04" density="3.50" laneDensity="3.50" occupancy="1.64" waitingTime="0.00" timeLoss="43.21" speed="7.35" speedRelative="0.88" departed="3" arrived="2" entered="76" left="77" laneChangedFrom="0" laneChangedTo="0"/>
        <edge id="-1100646993" sampledSeconds="1564.80" traveltime="63.03" overlapTraveltime="65.03" density="2.97" laneDensity="2.97" occupancy="1.72" waitingTime="0.00" timeLoss="316.69" speed="2.34" speedRelative="0.84" departed="4" arrived="2" entered="21" left="22" laneChangedFrom="0" laneChangedTo="0"/>
        <edge id="-1100646994" sampledSeconds="2.21" traveltime="0.09" overlapTraveltime="2.59" density="3.07" laneDensity="3.07" occupancy="0.06" waitingTime="0.00" timeLoss="0.37" speed="2.38" speedRelative="0.85" departed="0" arrived="4" entered="4" left="0" laneChangedFrom="0" laneChangedTo="0"/>
        <edge id="-1101404244" sampledSeconds="15.78" traveltime="4.50" overlapTraveltime="6.52" density="0.36" laneDensity="0.36" occupancy="0.21" waitingTime="0.00" timeLoss="9.72" speed="3.05" speedRelative="0.37" departed="4" arrived="0" entered="0" left="4" laneChangedFrom="0" laneChangedTo="0"/>
        <edge id="-1101405165#1" sampledSeconds="196.44" traveltime="16.02" overlapTraveltime="16.78" density="0.45" laneDensity="0.45" occupancy="0.26" waitingTime="0.00" timeLoss="14.36" speed="7.57" speedRelative="0.91" departed="0" arrived="12" entered="12" left="0" laneChangedFrom="0" laneChangedTo="0"/>
        <edge id="-1101405166" sampledSeconds="216.94" traveltime="14.41" overlapTraveltime="15.71" density="0.73" laneDensity="0.73" occupancy="0.37" waitingTime="28.00" timeLoss="74.65" speed="5.57" speedRelative="0.67" departed="4" arrived="1" entered="10" left="13" laneChangedFrom="0" laneChangedTo="0"/>
        <edge id="-1101405168" sampledSeconds="108.93" traveltime="7.18" overlapTraveltime="8.13" density="0.62" laneDensity="0.31" occupancy="0.17" waitingTime="24.00" timeLoss="56.50" speed="6.67" speedRelative="0.48" departed="15" arrived="0" entered="0" left="15" laneChangedFrom="1" laneChangedTo="1"/>
        <edge id="-1101405300" sampledSeconds="15.33" traveltime="0.43" overlapTraveltime="1.57" density="1.84" laneDensity="1.84" occupancy="0.30" waitingTime="0.00" timeLoss="3.85" speed="5.57" speedRelative="0.67" departed="0" arrived="10" entered="14" left="4" laneChangedFrom="0" laneChangedTo="0"/>
        <edge id="-110464119" sampledSeconds="18.68" overlapTraveltime="3.20" density="2.28" laneDensity="2.28" occupancy="0.45" waitingTime="0.00" timeLoss="12.70" speed="2.60" speedRelative="0.31" departed="9" arrived="0" entered="0" left="9" laneChangedFrom="0" laneChangedTo="0"/>
        <edge id="-1117432800" sampledSeconds="0.00" departed="0" arrived="0" entered="0" left="0" laneChangedFrom="0" laneChangedTo="0"/>
        <edge id="-1119855803#0" sampledSeconds="4.94" traveltime="4.38" overlapTraveltime="5.41" density="0.06" laneDensity="0.06" occupancy="0.01" waitingTime="0.00" timeLoss="1.50" speed="4.92" speedRelative="0.59" departed="1" arrived="0" entered="0" left="1" laneChangedFrom="0" laneChangedTo="0"/>
        <edge id="-1119855803#1" sampledSeconds="69.70" traveltime="2.62" overlapTraveltime="3.48" density="1.23" laneDensity="1.23" occupancy="0.42" waitingTime="0.00" timeLoss="14.26" speed="5.89" speedRelative="0.71" departed="4" arrived="1" entered="17" left="20" laneChangedFrom="0" laneChangedTo="0"/>
        <edge id="-1121008013" sampledSeconds="30.24" traveltime="0.06" overlapTraveltime="1.76" density="42.00" laneDensity="42.00" occupancy="0.81" waitingTime="0.00" timeLoss="9.53" speed="3.52" speedRelative="0.42" departed="0" arrived="7" entered="23" left="16" laneChangedFrom="0" laneChangedTo="0"/>
        <edge id="-112128825" sampledSeconds="31.66" traveltime="0.05" overlapTraveltime="1.92" density="43.98" laneDensity="43.98" occupancy="0.85" waitingTime="0.00" timeLoss="11.56" speed="3.83" speedRelative="0.46" departed="0" arrived="8" entered="24" left="16" laneChangedFrom="0" laneChangedTo="0"/>
        <edge id="-1122497068" sampledSeconds="270.89" traveltime="5.50" overlapTraveltime="6.90" density="1.56" laneDensity="1.56" occupancy="0.72" waitingTime="0.00" timeLoss="97.35" speed="7.80" speedRelative="0.56" departed="5" arrived="7" entered="35" left="33" laneChangedFrom="0" laneChangedTo="0"/>
        <edge id="-1133761626" sampledSeconds="1270.14" traveltime="10.60" overlapTraveltime="11.26" density="4.69" laneDensity="4.69" occupancy="2.05" waitingTime="2.00" timeLoss="170.62" speed="7.11" speedRelative="0.85" departed="3" arrived="2" entered="110" left="111" laneChangedFrom="0" laneChangedTo="0"/>
        <edge id="-1133761629" sampledSeconds="60.78" traveltime="6.12" overlapTraveltime="6.80" density="0.41" laneDensity="0.41" occupancy="0.15" waitingTime="0.00" timeLoss="8.89" speed="6.69" speedRelative="0.80" departed="1" arrived="1" entered="8" left="8" laneChangedFrom="0" laneChangedTo="0"/>
        <edge id="-1133992722" sampledSeconds="21.91" traveltime="0.05" overlapTraveltime="1.06" density="30.42" laneDensity="30.42" occupancy="0.59" waitingTime="0.00" timeLoss="6.17" speed="6.08" speedRelative="0.73" departed="10" arrived="0" entered="16" left="25" laneChangedFrom="0" laneChangedTo="0"/>
        <edge id="-1133992729#0" sampledSeconds="1939.24" traveltime="5.40" overlapTraveltime="6.49" density="39.43" laneDensity="39.43" occupancy="16.96" waitingTime="880.00" timeLoss="1214.80" speed="2.93" speedRelative="0.35" departed="2" arrived="2" entered="296" left="296" laneChangedFrom="0" laneChangedTo="0"/>
        <edge id="-1133992729#1" sampledSeconds="766.60" traveltime="1.78" overlapTraveltime="2.66" density="21.55" laneDensity="21.55" occupancy="8.02" waitingTime="70.00" timeLoss="217.10" speed="5.93" speedRelative="0.71" departed="2" arrived="1" entered="296" left="296" laneChangedFrom="0" laneChangedTo="0"/>
        <edge id="-1133992729#10" sampledSeconds="1516.85" traveltime="4.18" overlapTraveltime="5.74" density="30.55" laneDensity="30.55" occupancy="19.84" waitingTime="498.00" timeLoss="829.89" speed="3.75" speedRelative="0.45" departed="3" arrived="0" entered="293" left="296" laneChangedFrom="0" laneChangedTo="0"/>
        <edge id="-1133992729#11" sampledSeconds="596.34" traveltime="1.14" overlapTraveltime="2.32" density="40.40" laneDensity="40.40" occupancy="10.31" waitingTime="111.00" timeLoss="259.04" speed="4.69" speedRelative="0.56" departed="2" arrived="0" entered="291" left="293" laneChangedFrom="0" laneChangedTo="0"/>
        <edge id="-1133992729#3" sampledSeconds="884.19" traveltime="2.19" overlapTraveltime="2.76" density="45.82" laneDensity="45.82" occupancy="10.41" waitingTime="394.00" timeLoss="498.95" speed="3.61" speedRelative="0.43" departed="3" arrived="0" entered="293" left="296" laneChangedFrom="0" laneChangedTo="0"/>
        <edge id="-1133992729#4" sampledSeconds="271.30" traveltime="0.03" overlapTraveltime="1.24" density="212.77" laneDensity="212.77" occupancy="7.27" waitingTime="1.00" timeLoss="70.45" speed="6.15" speedRelative="0.74" departed="2" arrived="2" entered="293" left="293" laneChangedFrom="0" laneChangedTo="0"/>
        <edge id="-1133992729#6" sampledSeconds="301.28" traveltime="0.06" overlapTraveltime="1.36" density="212.77" laneDensity="212.77" occupancy="7.93" waitingTime="10.00" timeLoss="95.07" speed="5.69" speedRelative="0.68" departed="4" arrived="2" entered="292" left="294" laneChangedFrom="0" laneChangedTo="0"/>
        <edge id="-1133992729#7" sampledSeconds="1160.73" traveltime="2.97" overlapTraveltime="4.03" density="31.36" laneDensity="31.36" occupancy="13.18" waitingTime="341.00" timeLoss="597.89" speed="4.01" speedRelative="0.48" departed="1" arrived="3" entered="295" left="293" laneChangedFrom="0" laneChangedTo="0"/>
        <edge id="-1138687773" sampledSeconds="0.00" departed="0" arrived="0" entered="0" left="0" laneChangedFrom="0" laneChangedTo="0"/>
        <edge id="-1138687774" sampledSeconds="0.00" departed="0" arrived="0" entered="0" left="0" laneChangedFrom="0" laneChangedTo="0"/>
        <edge id="-1138687775" sampledSeconds="0.00" departed="0" arrived="0" entered="0" left="0" laneChangedFrom="0" laneChangedTo="0"/>
        <edge id="-1138687776" sampledSeconds="0.00" departed="0" arrived="0" entered="0" left="0" laneChangedFrom="0" laneChangedTo="0"/>
        <edge id="-1138687777" sampledSeconds="0.00" departed="0" arrived="0" entered="0" left="0" laneChangedFrom="0" laneChangedTo="0"/>
        <edge id="-1138687778" sampledSeconds="0.00" departed="0" arrived="0" entered="0" left="0" laneChangedFrom="0" laneChangedTo="0"/>
        <edge id="-1138687779" sampledSeconds="0.00" departed="0" arrived="0" entered="0" left="0" laneChangedFrom="0" laneChangedTo="0"/>
        <edge id="-1138687780" sampledSeconds="0.00" departed="0" arrived="0" entered="0" left="0" laneChangedFrom="0" laneChangedTo="0"/>
        <edge id="-1138687781" sampledSeconds="0.00" departed="0" arrived="0" entered="0" left="0" laneChangedFrom="0" laneChangedTo="0"/>
        <edge id="-1138696720#0" sampledSeconds="601.50" traveltime="2.18" overlapTraveltime="3.28" density="15.81" laneDensity="15.81" occupancy="6.72" waitingTime="123.00" timeLoss="234.28" speed="5.07" speedRelative="0.61" departed="1" arrived="3" entered="188" left="186" laneChangedFrom="0" laneChangedTo="0"/>