<?xml version="1.0" encoding="UTF-8"?>

<!-- generated on 2025-10-04 15:42:18 by Eclipse SUMO GUI Version 1.24.0
<sumoConfiguration xmlns:xsi="http://www.w3.org/2001/XMLSchema-instance" xsi:noNamespaceSchemaLocation="http://sumo.dlr.de/xsd/sumoConfiguration.xsd">

    <input>
        <net-file value="sumo_files/Berlin/osm.net.xml.gz"/>
        <route-files value="sumo_files/Berlin/osm_pt.rou.xml,sumo_files/Berlin/osm.bus.trips.xml,sumo_files/Berlin/osm.motorcycle.trips.xml,sumo_files/Berlin/osm.passenger.trips.xml,sumo_files/Berlin/osm.truck.trips.xml"/>
        <additional-files value="sumo_files/Berlin/osm.poly.xml.gz,sumo_files/Berlin/osm_stops.add.xml,sumo_files/Berlin/output.add.xml"/>
    </input>

    <output>
        <tripinfo-output value="sumo_files/Berlin/tripinfos.xml"/>
        <stop-output value="sumo_files/Berlin/stopinfos.xml"/>
        <statistic-output value="sumo_files/Berlin/stats.xml"/>
    </output>

    <time>
        <step-length value="1.0"/>
    </time>

    <processing>
        <ignore-route-errors value="true"/>
        <time-to-teleport value="-1"/>
        <tls.actuated.jam-threshold value="30"/>
    </processing>

    <routing>
        <device.rerouting.adaptation-steps value="18"/>
        <device.rerouting.adaptation-interval value="10"/>
    </routing>

    <report>
        <verbose value="true"/>
        <no-warnings value="true"/>
        <duration-log.statistics value="true"/>
        <no-step-log value="true"/>
    </report>

    <traci_server>
        <remote-port value="49465"/>
    </traci_server>

    <gui_only>
        <gui-settings-file value="sumo_files/Berlin/osm.view.xml"/>
    </gui_only>

</sumoConfiguration>
-->

<meandata xmlns:xsi="http://www.w3.org/2001/XMLSchema-instance" xsi:noNamespaceSchemaLocation="http://sumo.dlr.de/xsd/meandata_file.xsd">
    <interval begin="0.00" end="2268.00" id="wizard_example">
        <edge id="-1015063876" sampledSeconds="0.00" departed="0" arrived="0" entered="0" left="0" laneChangedFrom="0" laneChangedTo="0"/>
        <edge id="-1015063877" sampledSeconds="0.00" departed="0" arrived="0" entered="0" left="0" laneChangedFrom="0" laneChangedTo="0"/>
        <edge id="-1015063879" sampledSeconds="0.00" departed="0" arrived="0" entered="0" left="0" laneChangedFrom="0" laneChangedTo="0"/>
        <edge id="-1015063883" sampledSeconds="0.00" departed="0" arrived="0" entered="0" left="0" laneChangedFrom="0" laneChangedTo="0"/>
        <edge id="-1015063886" sampledSeconds="0.00" departed="0" arrived="0" entered="0" left="0" laneChangedFrom="0" laneChangedTo="0"/>
        <edge id="-1020468799" sampledSeconds="38.82" traveltime="0.03" overlapTraveltime="1.41" density="85.59" laneDensity="85.59" occupancy="1.66" waitingTime="0.00" timeLoss="12.77" speed="5.66" speedRelative="0.68" departed="2" arrived="1" entered="35" left="36" laneChangedFrom="0" laneChangedTo="0"/>
        <edge id="-1020468803" sampledSeconds="13.75" traveltime="0.45" overlapTraveltime="1.38" density="1.88" laneDensity="1.88" occupancy="0.39" waitingTime="0.00" timeLoss="2.86" speed="6.70" speedRelative="0.80" departed="1" arrived="1" entered="10" left="10" laneChangedFrom="0" laneChangedTo="0"/>
        <edge id="-1024034686#0" sampledSeconds="24.70" traveltime="0.02" overlapTraveltime="0.79" density="72.60" laneDensity="72.60" occupancy="1.05" waitingTime="0.00" timeLoss="2.37" speed="7.34" speedRelative="0.88" departed="1" arrived="2" entered="39" left="38" laneChangedFrom="0" laneChangedTo="0"/>
        <edge id="-1024034686#1" sampledSeconds="42.37" traveltime="0.03" overlapTraveltime="1.21" density="93.41" laneDensity="93.41" occupancy="1.80" waitingTime="0.00" timeLoss="9.06" speed="5.95" speedRelative="0.71" departed="1" arrived="1" entered="46" left="46" laneChangedFrom="0" laneChangedTo="0"/>
        <edge id="-1024034687#0" sampledSeconds="34.69" traveltime="0.05" overlapTraveltime="1.64" density="84.97" laneDensity="84.97" occupancy="1.47" waitingTime="0.00" timeLoss="11.09" speed="3.52" speedRelative="0.42" departed="0" arrived="9" entered="28" left="19" laneChangedFrom="0" laneChangedTo="0"/>
        <edge id="-1024034687#1" sampledSeconds="33.31" traveltime="0.42" overlapTraveltime="1.27" density="4.69" laneDensity="4.69" occupancy="0.92" waitingTime="0.00" timeLoss="4.76" speed="7.03" speedRelative="0.84" departed="1" arrived="1" entered="28" left="28" laneChangedFrom="0" laneChangedTo="0"/>
        <edge id="-1024034687#11" sampledSeconds="27.74" traveltime="0.02" overlapTraveltime="0.84" density="71.94" laneDensity="71.94" occupancy="1.18" waitingTime="0.00" timeLoss="4.58" speed="6.80" speedRelative="0.82" departed="2" arrived="1" entered="38" left="39" laneChangedFrom="0" laneChangedTo="0"/>
        <edge id="-1024034687#2" sampledSeconds="22.84" traveltime="0.06" overlapTraveltime="0.87" density="24.57" laneDensity="24.57" occupancy="0.93" waitingTime="0.00" timeLoss="3.07" speed="7.12" speedRelative="0.86" departed="1" arrived="3" entered="30" left="28" laneChangedFrom="0" laneChangedTo="0"/>
        <edge id="-1024034687#3" sampledSeconds="24.87" traveltime="0.05" overlapTraveltime="0.87" density="32.25" laneDensity="32.25" occupancy="1.03" waitingTime="0.00" timeLoss="3.76" speed="6.97" speedRelative="0.84" departed="2" arrived="3" entered="31" left="30" laneChangedFrom="0" laneChangedTo="0"/>
        <edge id="-1024034687#5" sampledSeconds="80.05" traveltime="1.58" overlapTraveltime="2.26" density="3.05" laneDensity="3.05" occupancy="1.05" waitingTime="0.00" timeLoss="7.96" speed="7.38" speedRelative="0.89" departed="0" arrived="5" entered="36" left="31" laneChangedFrom="0" laneChangedTo="0"/>
        <edge id="-1024034687#6" sampledSeconds="110.71" traveltime="2.42" overlapTraveltime="3.10" density="2.83" laneDensity="2.83" occupancy="1.07" waitingTime="0.00" timeLoss="13.78" speed="7.18" speedRelative="0.86" departed="1" arrived="0" entered="35" left="36" laneChangedFrom="0" laneChangedTo="0"/>
        <edge id="-1024034687#7" sampledSeconds="33.43" traveltime="0.21" overlapTraveltime="1.05" density="9.45" laneDensity="9.45" occupancy="1.14" waitingTime="0.00" timeLoss="5.21" speed="6.93" speedRelative="0.83" departed="1" arrived="1" entered="35" left="35" laneChangedFrom="0" laneChangedTo="0"/>
        <edge id="-1024034687#8" sampledSeconds="213.60" traveltime="5.46" overlapTraveltime="6.11" density="2.31" laneDensity="2.31" occupancy="1.00" waitingTime="0.00" timeLoss="19.65" speed="7.48" speedRelative="0.90" departed="0" arrived="0" entered="35" left="35" laneChangedFrom="0" laneChangedTo="0"/>
        <edge id="-1024034687#9" sampledSeconds="25.00" traveltime="0.03" overlapTraveltime="0.78" density="55.12" laneDensity="55.12" occupancy="1.05" waitingTime="0.00" timeLoss="2.30" speed="7.41" speedRelative="0.89" departed="0" arrived="4" entered="39" left="35" laneChangedFrom="0" laneChangedTo="0"/>
        <edge id="-102984483#0" sampledSeconds="392.74" traveltime="1.10" overlapTraveltime="2.03" density="18.42" laneDensity="18.42" occupancy="5.74" waitingTime="42.00" timeLoss="160.23" speed="7.26" speedRelative="0.52" departed="2" arrived="2" entered="195" left="195" laneChangedFrom="0" laneChangedTo="0"/>
        <edge id="-102984483#1" sampledSeconds="1189.72" traveltime="5.55" overlapTraveltime="6.03" density="8.51" laneDensity="8.51" occupancy="4.03" waitingTime="1.00" timeLoss="236.91" speed="11.10" speedRelative="0.80" departed="1" arrived="3" entered="197" left="195" laneChangedFrom="0" laneChangedTo="0"/>
        <edge id="-1052675176#0" sampledSeconds="68.50" traveltime="2.20" overlapTraveltime="2.81" density="1.97" laneDensity="1.97" occupancy="0.66" waitingTime="0.00" timeLoss="9.60" speed="7.05" speedRelative="0.85" departed="2" arrived="1" entered="23" left="24" laneChangedFrom="0" laneChangedTo="0"/>
        <edge id="-1052675176#1" sampledSeconds="43.65" traveltime="1.31" overlapTraveltime="1.94" density="2.08" laneDensity="2.08" occupancy="0.60" waitingTime="0.00" timeLoss="5.77" speed="7.15" speedRelative="0.86" departed="0" arrived="0" entered="23" left="23" laneChangedFrom="0" laneChangedTo="0"/>
        <edge id="-1052675176#2" sampledSeconds="15.31" traveltime="0.03" overlapTraveltime="0.81" density="33.75" laneDensity="33.75" occupancy="0.65" waitingTime="0.00" timeLoss="2.40" speed="6.92" speedRelative="0.83" departed="3" arrived="1" entered="21" left="23" laneChangedFrom="0" laneChangedTo="0"/>
        <edge id="-1052675176#3" sampledSeconds="60.36" traveltime="2.21" overlapTraveltime="2.81" density="1.69" laneDensity="1.69" occupancy="0.56" waitingTime="0.00" timeLoss="6.90" speed="7.18" speedRelative="0.86" departed="2" arrived="1" entered="20" left="21" laneChangedFrom="0" laneChangedTo="0"/>
        <edge id="-1052675176#5" sampledSeconds="67.23" traveltime="2.66" overlapTraveltime="3.31" density="1.72" laneDensity="1.72" occupancy="0.61" waitingTime="0.00" timeLoss="11.59" speed="6.66" speedRelative="0.80" departed="2" arrived="1" entered="19" left="20" laneChangedFrom="0" laneChangedTo="0"/>
        <edge id="-1052675177#0" sampledSeconds="2964.01" traveltime="30.01" overlapTraveltime="33.93" density="59.76" laneDensity="59.76" occupancy="44.75" waitingTime="2436.00" timeLoss="2653.99" speed="0.87" speedRelative="0.10" departed="1" arrived="0" entered="96" left="95" laneChangedFrom="0" laneChangedTo="0"/>
        <edge id="-1052675177#2" sampledSeconds="240.48" traveltime="2.64" overlapTraveltime="3.77" density="13.20" laneDensity="13.20" occupancy="4.47" waitingTime="52.00" timeLoss="139.04" speed="3.52" speedRelative="0.42" departed="3" arrived="1" entered="63" left="65" laneChangedFrom="0" laneChangedTo="0"/>
        <edge id="-1052675227#0" sampledSeconds="25.36" traveltime="0.03" overlapTraveltime="1.06" density="55.90" laneDensity="55.90" occupancy="1.08" waitingTime="0.00" timeLoss="1.86" speed="7.64" speedRelative="0.92" departed="1" arrived="1" entered="29" left="29" laneChangedFrom="0" laneChangedTo="0"/>
        <edge id="-1052675227#2" sampledSeconds="28.63" traveltime="0.03" overlapTraveltime="1.09" density="63.11" laneDensity="63.11" occupancy="1.22" waitingTime="0.00" timeLoss="3.69" speed="7.23" speedRelative="0.87" departed="1" arrived="4" entered="32" left="29" laneChangedFrom="0" laneChangedTo="0"/>
        <edge id="-1052675227#3" sampledSeconds="60.90" traveltime="1.07" overlapTraveltime="2.01" density="3.54" laneDensity="3.54" occupancy="1.18" waitingTime="0.00" timeLoss="7.51" speed="7.23" speedRelative="0.87" departed="0" arrived="0" entered="32" left="32" laneChangedFrom="0" laneChangedTo="0"/>
        <edge id="-1052675227#4" sampledSeconds="30.64" traveltime="0.03" overlapTraveltime="1.29" density="67.56" laneDensity="67.56" occupancy="1.31" waitingTime="0.00" timeLoss="6.06" speed="6.65" speedRelative="0.80" departed="2" arrived="0" entered="30" left="32" laneChangedFrom="0" laneChangedTo="0"/>
        <edge id="-1052675227#5" sampledSeconds="52.85" traveltime="0.84" overlapTraveltime="1.86" density="4.02" laneDensity="4.02" occupancy="1.21" waitingTime="0.00" timeLoss="9.11" speed="6.81" speedRelative="0.82" departed="1" arrived="1" entered="30" left="30" laneChangedFrom="0" laneChangedTo="0"/>
        <edge id="-1052675227#6" sampledSeconds="160.42" traveltime="4.65" overlapTraveltime="5.46" density="2.22" laneDensity="2.22" occupancy="1.07" waitingTime="2.00" timeLoss="24.81" speed="6.92" speedRelative="0.83" departed="4" arrived="0" entered="26" left="30" laneChangedFrom="0" laneChangedTo="0"/>
        <edge id="-1052675228" sampledSeconds="559.15" traveltime="12.76" overlapTraveltime="13.37" density="2.90" laneDensity="2.90" occupancy="1.11" waitingTime="12.00" timeLoss="109.96" speed="6.66" speedRelative="0.80" departed="3" arrived="3" entered="39" left="39" laneChangedFrom="0" laneChangedTo="0"/>
        <edge id="-1052734946" sampledSeconds="7.63" traveltime="3.32" overlapTraveltime="4.50" density="0.14" laneDensity="0.14" occupancy="0.09" waitingTime="0.00" timeLoss="0.73" speed="7.09" speedRelative="0.85" departed="0" arrived="2" entered="2" left="0" laneChangedFrom="0" laneChangedTo="0"/>
        <edge id="-1052756577" sampledSeconds="27.11" traveltime="13.08" overlapTraveltime="13.88" density="0.14" laneDensity="0.14" occupancy="0.06" waitingTime="0.00" timeLoss="2.08" speed="6.71" speedRelative="0.81" departed="0" arrived="2" entered="2" left="0" laneChangedFrom="0" laneChangedTo="0"/>
        <edge id="-1052756578#0" sampledSeconds="61.54" traveltime="2.55" overlapTraveltime="3.44" density="1.91" laneDensity="1.91" occupancy="0.69" waitingTime="1.00" timeLoss="18.68" speed="5.47" speedRelative="0.66" departed="0" arrived="1" entered="18" left="17" laneChangedFrom="0" laneChangedTo="0"/>
        <edge id="-1052756578#1" sampledSeconds="102.46" traveltime="4.52" overlapTraveltime="5.12" density="1.40" laneDensity="1.40" occupancy="0.53" waitingTime="0.00" timeLoss="11.24" speed="7.14" speedRelative="0.86" departed="0" arrived="2" entered="20" left="18" laneChangedFrom="0" laneChangedTo="0"/>
        <edge id="-1052756578#2" sampledSeconds="135.90" traveltime="5.89" overlapTraveltime="6.47" density="1.41" laneDensity="1.41" occupancy="0.54" waitingTime="0.00" timeLoss="14.75" speed="7.21" speedRelative="0.87" departed="0" arrived="1" entered="21" left="20" laneChangedFrom="0" laneChangedTo="0"/>
        <edge id="-1052757284#0" sampledSeconds="216.88" traveltime="9.43" overlapTraveltime="10.00" density="1.50" laneDensity="1.50" occupancy="0.55" waitingTime="0.00" timeLoss="36.61" speed="6.78" speedRelative="0.81" departed="1" arrived="0" entered="21" left="21" laneChangedFrom="0" laneChangedTo="0"/>
        <edge id="-1052757284#1" sampledSeconds="130.24" traveltime="4.72" overlapTraveltime="5.30" density="1.75" laneDensity="1.75" occupancy="0.63" waitingTime="0.00" timeLoss="19.93" speed="6.96" speedRelative="0.84" departed="1" arrived="4" entered="24" left="21" laneChangedFrom="0" laneChangedTo="0"/>
        <edge id="-1052758514#0" sampledSeconds="173.34" traveltime="11.74" overlapTraveltime="12.36" density="0.95" laneDensity="0.95" occupancy="0.34" waitingTime="0.00" timeLoss="28.29" speed="6.80" speedRelative="0.82" departed="0" arrived="2" entered="14" left="12" laneChangedFrom="0" laneChangedTo="0"/>
        <edge id="-1052758514#1" sampledSeconds="121.09" traveltime="4.13" overlapTraveltime="4.89" density="1.95" laneDensity="1.95" occupancy="0.83" waitingTime="0.00" timeLoss="22.88" speed="6.68" speedRelative="0.80" departed="1" arrived="1" entered="24" left="24" laneChangedFrom="0" laneChangedTo="0"/>
        <edge id="-1052758758#0" sampledSeconds="925.98" traveltime="8.39" overlapTraveltime="9.37" density="6.96" laneDensity="6.96" occupancy="3.30" waitingTime="9.00" timeLoss="162.68" speed="6.83" speedRelative="0.82" departed="1" arrived="2" entered="98" left="97" laneChangedFrom="0" laneChangedTo="0"/>
        <edge id="-1052758758#1" sampledSeconds="1066.99" traveltime="10.00" overlapTraveltime="10.70" density="6.32" laneDensity="6.32" occupancy="3.07" waitingTime="0.00" timeLoss="108.81" speed="7.45" speedRelative="0.89" departed="2" arrived="2" entered="98" left="98" laneChangedFrom="0" laneChangedTo="0"/>
        <edge id="-1052758759" sampledSeconds="1331.05" traveltime="13.63" overlapTraveltime="14.35" density="5.85" laneDensity="5.85" occupancy="2.95" waitingTime="0.00" timeLoss="140.73" speed="7.37" speedRelative="0.88" departed="3" arrived="3" entered="90" left="90" laneChangedFrom="0" laneChangedTo="0"/>
        <edge id="-1053278664" sampledSeconds="0.00" departed="0" arrived="0" entered="0" left="0" laneChangedFrom="0" laneChangedTo="0"/>
        <edge id="-105593532#0" sampledSeconds="0.00" departed="0" arrived="0" entered="0" left="0" laneChangedFrom="0" laneChangedTo="0"/>
        <edge id="-105593532#1" sampledSeconds="0.00" departed="0" arrived="0" entered="0" left="0" laneChangedFrom="0" laneChangedTo="0"/>
        <edge id="-1056637173" sampledSeconds="0.00" departed="0" arrived="0" entered="0" left="0" laneChangedFrom="0" laneChangedTo="0"/>
        <edge id="-1070046769#0" sampledSeconds="0.00" departed="0" arrived="0" entered="0" left="0" laneChangedFrom="0" laneChangedTo="0"/>
        <edge id="-1070046769#1" sampledSeconds="0.00" departed="0" arrived="0" entered="0" left="0" laneChangedFrom="0" laneChangedTo="0"/>
        <edge id="-1071210942" sampledSeconds="0.00" departed="0" arrived="0" entered="0" left="0" laneChangedFrom="0" laneChangedTo="0"/>
        <edge id="-1077117221#1" sampledSeconds="0.00" departed="0" arrived="0" entered="0" left="0" laneChangedFrom="0" laneChangedTo="0"/>
        <edge id="-1085484772" sampledSeconds="0.00" departed="0" arrived="0" entered="0" left="0" laneChangedFrom="0" laneChangedTo="0"/>
        <edge id="-1085484775" sampledSeconds="0.00" departed="0" arrived="0" entered="0" left="0" laneChangedFrom="0" laneChangedTo="0"/>
        <edge id="-1085484776" sampledSeconds="0.00" departed="0" arrived="0" entered="0" left="0" laneChangedFrom="0" laneChangedTo="0"/>
        <edge id="-1094013594" sampledSeconds="0.00" departed="0" arrived="0" entered="0" left="0" laneChangedFrom="0" laneChangedTo="0"/>
        <edge id="-1094013595" sampledSeconds="0.00" departed="0" arrived="0" entered="0" left="0" laneChangedFrom="0" laneChangedTo="0"/>
        <edge id="-1095165529" sampledSeconds="9.07" overlapTraveltime="1.64" density="20.00" laneDensity="20.00" occupancy="0.40" waitingTime="0.00" timeLoss="5.04" speed="3.77" speedRelative="0.45" departed="6" arrived="0" entered="0" left="6" laneChangedFrom="0" laneChangedTo="0"/>
        <edge id="-1095407474#1" sampledSeconds="236.51" traveltime="5.49" overlapTraveltime="6.09" density="2.62" laneDensity="2.62" occupancy="1.03" waitingTime="0.00" timeLoss="30.95" speed="7.26" speedRelative="0.87" departed="2" arrived="0" entered="37" left="39" laneChangedFrom="0" laneChangedTo="0"/>
        <edge id="-1095407474#2" sampledSeconds="219.67" traveltime="4.82" overlapTraveltime="5.39" density="2.78" laneDensity="2.78" occupancy="1.04" waitingTime="0.00" timeLoss="27.79" speed="7.27" speedRelative="0.87" departed="1" arrived="4" entered="40" left="37" laneChangedFrom="0" laneChangedTo="0"/>
        <edge id="-1095407474#3" sampledSeconds="246.41" traveltime="5.45" overlapTraveltime="6.00" density="2.79" laneDensity="2.79" occupancy="1.04" waitingTime="0.00" timeLoss="33.35" speed="7.19" speedRelative="0.86" departed="1" arrived="1" entered="40" left="40" laneChangedFrom="0" laneChangedTo="0"/>
        <edge id="-1097500694" sampledSeconds="0.00" departed="0" arrived="0" entered="0" left="0" laneChangedFrom="0" laneChangedTo="0"/>
        <edge id="-1097500696" sampledSeconds="0.00" departed="0" arrived="0" entered="0" left="0" laneChangedFrom="0" laneChangedTo="0"/>
        <edge id="-1098856682#0" sampledSeconds="342.81" traveltime="7.15" overlapTraveltime="7.79" density="2.95" laneDensity="2.95" occupancy="1.25" waitingTime="0.00" timeLoss="45.20" speed="7.19" speedRelative="0.86" departed="1" arrived="0" entered="43" left="44" laneChangedFrom="0" laneChangedTo="0"/>
        <edge id="-1098856683#0" sampledSeconds="169.72" traveltime="2.70" overlapTraveltime="3.57" density="5.36" laneDensity="5.36" occupancy="2.03" waitingTime="8.00" timeLoss="60.05" speed="5.30" speedRelative="0.64" departed="3" arrived="2" entered="46" left="47" laneChangedFrom="0" laneChangedTo="0"/>
        <edge id="-1098856683#1" sampledSeconds="116.50" traveltime="1.90" overlapTraveltime="2.59" density="3.90" laneDensity="3.90" occupancy="1.38" waitingTime="0.00" timeLoss="18.13" speed="7.01" speedRelative="0.84" departed="2" arrived="0" entered="44" left="46" laneChangedFrom="0" laneChangedTo="0"/>
        <edge id="-1098856743" sampledSeconds="243.07" traveltime="10.11" overlapTraveltime="11.25" density="1.77" laneDensity="1.77" occupancy="0.90" waitingTime="22.00" timeLoss="67.14" speed="5.86" speedRelative="0.70" departed="1" arrived="4" entered="21" left="18" laneChangedFrom="0" laneChangedTo="0"/>
        <edge id="-1098856744" sampledSeconds="225.63" traveltime="4.25" overlapTraveltime="5.03" density="3.18" laneDensity="3.18" occupancy="1.55" waitingTime="0.00" timeLoss="22.05" speed="7.42" speedRelative="0.89" departed="1" arrived="0" entered="44" left="45" laneChangedFrom="0" laneChangedTo="0"/>
        <edge id="-1100646993" sampledSeconds="898.67" traveltime="65.31" overlapTraveltime="67.58" density="2.71" laneDensity="2.71" occupancy="1.65" waitingTime="0.00" timeLoss="182.22" speed="2.26" speedRelative="0.81" departed="2" arrived="2" entered="12" left="11" laneChangedFrom="0" laneChangedTo="0"/>
        <edge id="-1100646994" sampledSeconds="0.85" traveltime="0.10" overlapTraveltime="2.48" density="1.87" laneDensity="1.87" occupancy="0.03" waitingTime="0.00" timeLoss="0.15" speed="2.27" speedRelative="0.82" departed="0" arrived="3" entered="3" left="0" laneChangedFrom="0" laneChangedTo="0"/>
        <edge id="-1101404244" sampledSeconds="0.00" departed="0" arrived="0" entered="0" left="0" laneChangedFrom="0" laneChangedTo="0"/>
        <edge id="-1101405165#1" sampledSeconds="114.11" traveltime="15.86" overlapTraveltime="16.67" density="0.42" laneDensity="0.42" occupancy="0.25" waitingTime="0.00" timeLoss="7.04" speed="7.64" speedRelative="0.92" departed="0" arrived="7" entered="7" left="0" laneChangedFrom="0" laneChangedTo="0"/>
        <edge id="-1101405166" sampledSeconds="80.87" traveltime="14.93" overlapTraveltime="16.60" density="0.43" laneDensity="0.43" occupancy="0.26" waitingTime="11.00" timeLoss="29.65" speed="5.33" speedRelative="0.64" departed="1" arrived="1" entered="4" left="4" laneChangedFrom="0" laneChangedTo="0"/>
        <edge id="-1101405168" sampledSeconds="59.94" traveltime="6.45" overlapTraveltime="7.42" density="0.54" laneDensity="0.27" occupancy="0.14" waitingTime="8.00" timeLoss="28.94" speed="7.26" speedRelative="0.52" departed="9" arrived="0" entered="0" left="9" laneChangedFrom="0" laneChangedTo="0"/>
        <edge id="-1101405300" sampledSeconds="8.10" traveltime="0.46" overlapTraveltime="1.64" density="1.54" laneDensity="1.54" occupancy="0.25" waitingTime="0.00" timeLoss="1.77" speed="5.04" speedRelative="0.61" departed="0" arrived="4" entered="7" left="3" laneChangedFrom="0" laneChangedTo="0"/>
        <edge id="-110464119" sampledSeconds="0.48" overlapTraveltime="0.97" density="0.09" laneDensity="0.09" occupancy="0.01" waitingTime="0.00" timeLoss="0.22" speed="4.60" speedRelative="0.55" departed="1" arrived="0" entered="0" left="1" laneChangedFrom="0" laneChangedTo="0"/>
        <edge id="-1117432800" sampledSeconds="0.00" departed="0" arrived="0" entered="0" left="0" laneChangedFrom="0" laneChangedTo="0"/>
        <edge id="-1119855803#0" sampledSeconds="4.83" traveltime="4.38" overlapTraveltime="5.29" density="0.09" laneDensity="0.09" occupancy="0.02" waitingTime="0.00" timeLoss="1.36" speed="5.03" speedRelative="0.60" departed="1" arrived="0" entered="0" left="1" laneChangedFrom="0" laneChangedTo="0"/>
        <edge id="-1119855803#1" sampledSeconds="36.66" traveltime="2.67" overlapTraveltime="3.55" density="1.02" laneDensity="1.02" occupancy="0.35" waitingTime="0.00" timeLoss="8.54" speed="5.82" speedRelative="0.70" departed="3" arrived="0" entered="8" left="11" laneChangedFrom="0" laneChangedTo="0"/>
        <edge id="-1121008013" sampledSeconds="19.52" traveltime="0.06" overlapTraveltime="1.83" density="43.04" laneDensity="43.04" occupancy="0.83" waitingTime="0.00" timeLoss="5.67" speed="3.51" speedRelative="0.42" departed="0" arrived="4" entered="15" left="11" laneChangedFrom="0" laneChangedTo="0"/>
        <edge id="-112128825" sampledSeconds="25.54" traveltime="0.06" overlapTraveltime="2.00" density="56.30" laneDensity="56.30" occupancy="1.09" waitingTime="0.00" timeLoss="9.53" speed="3.52" speedRelative="0.42" departed="0" arrived="4" entered="17" left="13" laneChangedFrom="0" laneChangedTo="0"/>
        <edge id="-1122497068" sampledSeconds="137.96" traveltime="5.37" overlapTraveltime="6.74" density="1.26" laneDensity="1.26" occupancy="0.54" waitingTime="0.00" timeLoss="46.71" speed="7.92" speedRelative="0.57" departed="4" arrived="4" entered="17" left="17" laneChangedFrom="0" laneChangedTo="0"/>
        <edge id="-1133761626" sampledSeconds="996.20" traveltime="10.58" overlapTraveltime="11.21" density="5.83" laneDensity="5.83" occupancy="2.46" waitingTime="0.00" timeLoss="134.94" speed="7.12" speedRelative="0.85" departed="3" arrived="1" entered="86" left="88" laneChangedFrom="0" laneChangedTo="0"/>
        <edge id="-1133761629" sampledSeconds="14.17" traveltime="6.67" overlapTraveltime="7.25" density="0.15" laneDensity="0.15" occupancy="0.05" waitingTime="0.00" timeLoss="2.38" speed="6.17" speedRelative="0.74" departed="1" arrived="0" entered="1" left="2" laneChangedFrom="0" laneChangedTo="0"/>
        <edge id="-1133992722" sampledSeconds="8.20" traveltime="0.05" overlapTraveltime="0.91" density="18.09" laneDensity="18.09" occupancy="0.35" waitingTime="0.00" timeLoss="2.00" speed="6.36" speedRelative="0.76" departed="4" arrived="0" entered="7" left="11" laneChangedFrom="0" laneChangedTo="0"/>
        <edge id="-1133992729#0" sampledSeconds="2782.60" traveltime="28.25" overlapTraveltime="29.30" density="89.82" laneDensity="89.82" occupancy="43.79" waitingTime="2460.00" timeLoss="2552.32" speed="0.64" speedRelative="0.08" departed="0" arrived="1" entered="96" left="93" laneChangedFrom="0" laneChangedTo="0"/>
        <edge id="-1133992729#1" sampledSeconds="2567.96" traveltime="25.86" overlapTraveltime="24.27" density="114.60" laneDensity="114.60" occupancy="36.70" waitingTime="2345.00" timeLoss="2393.78" speed="0.56" speedRelative="0.07" departed="1" arrived="0" entered="97" left="96" laneChangedFrom="0" laneChangedTo="0"/>
        <edge id="-1133992729#10" sampledSeconds="1376.73" traveltime="13.53" overlapTraveltime="18.27" density="44.02" laneDensity="44.02" occupancy="43.96" waitingTime="1064.00" timeLoss="1158.43" speed="1.32" speedRelative="0.16" departed="1" arrived="0" entered="96" left="96" laneChangedFrom="0" laneChangedTo="0"/>
        <edge id="-1133992729#11" sampledSeconds="183.03" traveltime="1.09" overlapTraveltime="2.35" density="19.68" laneDensity="19.68" occupancy="4.92" waitingTime="31.00" timeLoss="77.27" speed="4.82" speedRelative="0.58" departed="1" arrived="0" entered="95" left="96" laneChangedFrom="0" laneChangedTo="0"/>
        <edge id="-1133992729#3" sampledSeconds="1173.39" traveltime="11.38" overlapTraveltime="9.34" density="96.52" laneDensity="96.52" occupancy="21.84" waitingTime="1022.00" timeLoss="1052.05" speed="0.86" speedRelative="0.10" departed="1" arrived="0" entered="97" left="97" laneChangedFrom="0" laneChangedTo="0"/>
        <edge id="-1133992729#4" sampledSeconds="79.84" traveltime="0.03" overlapTraveltime="1.07" density="176.02" laneDensity="176.02" occupancy="3.39" waitingTime="3.00" timeLoss="19.32" speed="6.33" speedRelative="0.76" departed="2" arrived="1" entered="96" left="97" laneChangedFrom="0" laneChangedTo="0"/>
        <edge id="-1133992729#6" sampledSeconds="86.34" traveltime="0.05" overlapTraveltime="1.08" density="126.89" laneDensity="126.89" occupancy="3.57" waitingTime="0.00" timeLoss="24.51" speed="5.98" speedRelative="0.72" departed="3" arrived="0" entered="94" left="97" laneChangedFrom="0" laneChangedTo="0"/>
        <edge id="-1133992729#7" sampledSeconds="281.73" traveltime="2.10" overlapTraveltime="3.04" density="12.08" laneDensity="12.08" occupancy="4.51" waitingTime="35.00" timeLoss="105.19" speed="5.22" speedRelative="0.63" departed="0" arrived="2" entered="96" left="94" laneChangedFrom="0" laneChangedTo="0"/>
        <edge id="-1138687773" sampledSeconds="0.00" departed="0" arrived="0" entered="0" left="0" laneChangedFrom="0" laneChangedTo="0"/>
        <edge id="-1138687774" sampledSeconds="0.00" departed="0" arrived="0" entered="0" left="0" laneChangedFrom="0" laneChangedTo="0"/>
        <edge id="-1138687775" sampledSeconds="0.00" departed="0" arrived="0" entered="0" left="0" laneChangedFrom="0" laneChangedTo="0"/>
        <edge id="-1138687776" sampledSeconds="0.00" departed="0" arrived="0" entered="0" left="0" laneChangedFrom="0" laneChangedTo="0"/>
        <edge id="-1138687777" sampledSeconds="0.00" departed="0" arrived="0" entered="0" left="0" laneChangedFrom="0" laneChangedTo="0"/>
        <edge id="-1138687778" sampledSeconds="0.00" departed="0" arrived="0" entered="0" left="0" laneChangedFrom="0" laneChangedTo="0"/>
        <edge id="-1138687779" sampledSeconds="0.00" departed="0" arrived="0" entered="0" left="0" laneChangedFrom="0" laneChangedTo="0"/>
        <edge id="-1138687780" sampledSeconds="0.00" departed="0" arrived="0" entered="0" left="0" laneChangedFrom="0" laneChangedTo="0"/>
        <edge id="-1138687781" sampledSeconds="0.00" departed="0" arrived="0" entered="0" left="0" laneChangedFrom="0" laneChangedTo="0"/>
        <edge id="-1138696720#0" sampledSeconds="1269.83" traveltime="13.54" overlapTraveltime="26.87" density="52.97" laneDensity="52.97" occupancy="19.70" waitingTime="1164.00" timeLoss="1180.92" speed="0.58" speedRelative="0.07" departed="0" arrived="2" entered="47" left="44" laneChangedFrom="0" laneChangedTo="0"/>
        <edge id="-1138696720#3" sampledSeconds="1257.81" traveltime="24.95" overlapTraveltime="27.17" density="24.31" laneDensity="24.31" occupancy="16.22" waitingTime="1048.00" timeLoss="1092.15" speed="1.09" speedRelative="0.13" departed="1" arrived="1" entered="49" left="47" laneChangedFrom="0" laneChangedTo="0"/>
        <edge id="-1138696725" sampledSeconds="0.00" departed="0" arrived="0" entered="0" left="0" laneChangedFrom="0" laneChangedTo="0"/>