<?xml version="1.0" encoding="UTF-8"?>

<!-- generated on 2025-10-05 06:17:48 by Eclipse SUMO sumo Version 1.24.0
<sumoConfiguration xmlns:xsi="http://www.w3.org/2001/XMLSchema-instance" xsi:noNamespaceSchemaLocation="http://sumo.dlr.de/xsd/sumoConfiguration.xsd">

    <input>
        <net-file value="C:\Projects\FDRL-Traffic\FDRL\sumo_files\Berlin\osm.net.xml.gz"/>
        <route-files value="C:\Projects\FDRL-Traffic\FDRL\sumo_files\Berlin\osm_pt.rou.xml,C:\Projects\FDRL-Traffic\FDRL\sumo_files\Berlin\osm.bus.trips.xml,C:\Projects\FDRL-Traffic\FDRL\sumo_files\Berlin\osm.motorcycle.trips.xml,C:\Projects\FDRL-Traffic\FDRL\sumo_files\Berlin\osm.passenger.trips.xml,C:\Projects\FDRL-Traffic\FDRL\sumo_files\Berlin\osm.truck.trips.xml"/>
        <additional-files value="C:\Projects\FDRL-Traffic\FDRL\sumo_files\Berlin\osm.poly.xml.gz,C:\Projects\FDRL-Traffic\FDRL\sumo_files\Berlin\osm_stops.add.xml,C:\Projects\FDRL-Traffic\FDRL\sumo_files\Berlin\output.add.xml"/>
    </input>

    <output>
        <tripinfo-output value="C:\Projects\FDRL-Traffic\FDRL\sumo_files\Berlin\tripinfos.xml"/>
        <stop-output value="C:\Projects\FDRL-Traffic\FDRL\sumo_files\Berlin\stopinfos.xml"/>
        <statistic-output value="C:\Projects\FDRL-Traffic\FDRL\sumo_files\Berlin\stats.xml"/>
    </output>

    <processing>
        <ignore-route-errors value="true"/>
        <tls.actuated.jam-threshold value="30"/>
    </processing>

    <routing>
        <device.rerouting.adaptation-steps value="18"/>
        <device.rerouting.adaptation-interval value="10"/>
    </routing>

    <report>
        <verbose value="true"/>
        <duration-log.statistics value="true"/>
        <no-step-log value="true"/>
    </report>

    <traci_server>
        <remote-port value="60882"/>
    </traci_server>

    <gui_only>
        <gui-settings-file value="C:\Projects\FDRL-Traffic\FDRL\sumo_files\Berlin\osm.view.xml"/>
    </gui_only>

</sumoConfiguration>
-->

<tripinfos xmlns:xsi="http://www.w3.org/2001/XMLSchema-instance" xsi:noNamespaceSchemaLocation="http://sumo.dlr.de/xsd/tripinfo_file.xsd">
    <tripinfo id="motorcycle9" depart="43.00" departLane="1133992729#4_0" departPos="0.20" departSpeed="0.00" departDelay="0.12" arrival="96.00" arrivalLane="1133992722_0" arrivalPos="0.20" arrivalSpeed="5.35" duration="53.00" routeLength="403.20" waitingTime="0.00" waitingCount="0" stopTime="0.00" timeLoss="9.22" rerouteNo="1" devices="tripinfo_motorcycle9 routing_motorcycle9" vType="motorcycle_motorcycle" speedFactor="1.12" vaporized=""/>
    <tripinfo id="pt_bus_200:1.0" depart="17.00" departLane="112128418#0_0" departPos="12.10" departSpeed="0.00" departDelay="0.00" arrival="96.00" arrivalLane="295445243_0" arrivalPos="70.56" arrivalSpeed="13.72" duration="79.00" routeLength="379.18" waitingTime="0.00" waitingCount="0" stopTime="30.00" timeLoss="20.55" rerouteNo="0" devices="tripinfo_pt_bus_200:1.0" vType="pt_bus" speedFactor="1.00" vaporized=""/>
    <tripinfo id="pt_bus_200:0.0" depart="15.00" departLane="4613112_0" departPos="5.79" departSpeed="0.00" departDelay="0.00" arrival="100.00" arrivalLane="24914141#1_0" arrivalPos="134.20" arrivalSpeed="13.68" duration="85.00" routeLength="416.18" waitingTime="1.00" waitingCount="1" stopTime="31.00" timeLoss="22.89" rerouteNo="0" devices="tripinfo_pt_bus_200:0.0" vType="pt_bus" speedFactor="1.00" vaporized=""/>
    <tripinfo id="veh3" depart="10.00" departLane="-1397609462_0" departPos="5.10" departSpeed="7.08" departDelay="0.47" arrival="110.00" arrivalLane="-1024034687#2_0" arrivalPos="0.41" arrivalSpeed="6.32" duration="100.00" routeLength="627.55" waitingTime="0.00" waitingCount="0" stopTime="0.00" timeLoss="10.65" rerouteNo="1" devices="tripinfo_veh3 routing_veh3" vType="veh_passenger" speedFactor="0.85" vaporized=""/>
    <tripinfo id="veh7" depart="23.00" departLane="268002748#0_0" departPos="0.20" departSpeed="0.00" departDelay="0.77" arrival="137.00" arrivalLane="-717177007#0_0" arrivalPos="11.16" arrivalSpeed="8.11" duration="114.00" routeLength="764.90" waitingTime="15.00" waitingCount="2" stopTime="0.00" timeLoss="29.62" rerouteNo="1" devices="tripinfo_veh7 routing_veh7" vType="veh_passenger" speedFactor="1.10" vaporized=""/>
    <tripinfo id="truck1" depart="10.00" departLane="-1133992729#1_0" departPos="7.20" departSpeed="0.00" departDelay="0.47" arrival="143.00" arrivalLane="-1024034687#2_0" arrivalPos="0.41" arrivalSpeed="7.11" duration="133.00" routeLength="978.79" waitingTime="2.00" waitingCount="1" stopTime="0.00" timeLoss="21.07" rerouteNo="1" devices="tripinfo_truck1 routing_truck1" vType="truck_truck" speedFactor="0.92" vaporized=""/>
    <tripinfo id="veh10" depart="32.00" departLane="184429424#7_0" departPos="4.89" departSpeed="0.00" departDelay="0.24" arrival="147.00" arrivalLane="8149654#1_0" arrivalPos="7.28" arrivalSpeed="7.17" duration="115.00" routeLength="826.56" waitingTime="0.00" waitingCount="0" stopTime="0.00" timeLoss="11.98" rerouteNo="1" devices="tripinfo_veh10 routing_veh10" vType="veh_passenger" speedFactor="0.90" vaporized=""/>
    <tripinfo id="bus0" depart="0.00" departLane="-373389574#4_0" departPos="9.43" departSpeed="0.00" departDelay="0.00" arrival="151.00" arrivalLane="-24684997#0_0" arrivalPos="28.96" arrivalSpeed="8.31" duration="151.00" routeLength="1169.04" waitingTime="0.00" waitingCount="0" stopTime="0.00" timeLoss="19.00" rerouteNo="1" devices="tripinfo_bus0 routing_bus0" vType="bus_bus" speedFactor="1.00" vaporized=""/>
