<?xml version="1.0" encoding="UTF-8"?>

<!-- generated on 2025-10-04 15:42:18 by Eclipse SUMO GUI Version 1.24.0
<sumoConfiguration xmlns:xsi="http://www.w3.org/2001/XMLSchema-instance" xsi:noNamespaceSchemaLocation="http://sumo.dlr.de/xsd/sumoConfiguration.xsd">

    <input>
        <net-file value="sumo_files/Berlin/osm.net.xml.gz"/>
        <route-files value="sumo_files/Berlin/osm_pt.rou.xml,sumo_files/Berlin/osm.bus.trips.xml,sumo_files/Berlin/osm.motorcycle.trips.xml,sumo_files/Berlin/osm.passenger.trips.xml,sumo_files/Berlin/osm.truck.trips.xml"/>
        <additional-files value="sumo_files/Berlin/osm.poly.xml.gz,sumo_files/Berlin/osm_stops.add.xml,sumo_files/Berlin/output.add.xml"/>
    </input>

    <output>
        <tripinfo-output value="sumo_files/Berlin/tripinfos.xml"/>
        <stop-output value="sumo_files/Berlin/stopinfos.xml"/>
        <statistic-output value="sumo_files/Berlin/stats.xml"/>
    </output>

    <time>
        <step-length value="1.0"/>
    </time>

    <processing>
        <ignore-route-errors value="true"/>
        <time-to-teleport value="-1"/>
        <tls.actuated.jam-threshold value="30"/>
    </processing>

    <routing>
        <device.rerouting.adaptation-steps value="18"/>
        <device.rerouting.adaptation-interval value="10"/>
    </routing>

    <report>
        <verbose value="true"/>
        <no-warnings value="true"/>
        <duration-log.statistics value="true"/>
        <no-step-log value="true"/>
    </report>

    <traci_server>
        <remote-port value="49465"/>
    </traci_server>

    <gui_only>
        <gui-settings-file value="sumo_files/Berlin/osm.view.xml"/>
    </gui_only>

</sumoConfiguration>
-->

<tripinfos xmlns:xsi="http://www.w3.org/2001/XMLSchema-instance" xsi:noNamespaceSchemaLocation="http://sumo.dlr.de/xsd/tripinfo_file.xsd">
    <tripinfo id="motorcycle9" depart="43.00" departLane="1133992729#4_0" departPos="0.20" departSpeed="0.00" departDelay="0.12" arrival="96.00" arrivalLane="1133992722_0" arrivalPos="0.20" arrivalSpeed="5.35" duration="53.00" routeLength="403.20" waitingTime="0.00" waitingCount="0" stopTime="0.00" timeLoss="9.22" rerouteNo="1" devices="tripinfo_motorcycle9 routing_motorcycle9" vType="motorcycle_motorcycle" speedFactor="1.12" vaporized=""/>
    <tripinfo id="pt_bus_200:1.0" depart="17.00" departLane="112128418#0_0" departPos="12.10" departSpeed="0.00" departDelay="0.00" arrival="96.00" arrivalLane="295445243_0" arrivalPos="70.56" arrivalSpeed="13.72" duration="79.00" routeLength="379.18" waitingTime="0.00" waitingCount="0" stopTime="30.00" timeLoss="20.55" rerouteNo="0" devices="tripinfo_pt_bus_200:1.0" vType="pt_bus" speedFactor="1.00" vaporized=""/>
    <tripinfo id="pt_bus_200:0.0" depart="15.00" departLane="4613112_0" departPos="5.79" departSpeed="0.00" departDelay="0.00" arrival="100.00" arrivalLane="24914141#1_0" arrivalPos="134.20" arrivalSpeed="13.68" duration="85.00" routeLength="416.18" waitingTime="1.00" waitingCount="1" stopTime="31.00" timeLoss="22.89" rerouteNo="0" devices="tripinfo_pt_bus_200:0.0" vType="pt_bus" speedFactor="1.00" vaporized=""/>
    <tripinfo id="veh3" depart="10.00" departLane="-1397609462_0" departPos="5.10" departSpeed="7.08" departDelay="0.47" arrival="110.00" arrivalLane="-1024034687#2_0" arrivalPos="0.41" arrivalSpeed="6.32" duration="100.00" routeLength="627.55" waitingTime="0.00" waitingCount="0" stopTime="0.00" timeLoss="10.65" rerouteNo="1" devices="tripinfo_veh3 routing_veh3" vType="veh_passenger" speedFactor="0.85" vaporized=""/>
    <tripinfo id="veh7" depart="23.00" departLane="268002748#0_0" departPos="0.20" departSpeed="0.00" departDelay="0.77" arrival="137.00" arrivalLane="-717177007#0_0" arrivalPos="11.16" arrivalSpeed="8.11" duration="114.00" routeLength="764.90" waitingTime="15.00" waitingCount="2" stopTime="0.00" timeLoss="29.62" rerouteNo="1" devices="tripinfo_veh7 routing_veh7" vType="veh_passenger" speedFactor="1.10" vaporized=""/>
    <tripinfo id="truck1" depart="10.00" departLane="-1133992729#1_0" departPos="7.20" departSpeed="0.00" departDelay="0.47" arrival="143.00" arrivalLane="-1024034687#2_0" arrivalPos="0.41" arrivalSpeed="7.11" duration="133.00" routeLength="978.79" waitingTime="2.00" waitingCount="1" stopTime="0.00" timeLoss="21.07" rerouteNo="1" devices="tripinfo_truck1 routing_truck1" vType="truck_truck" speedFactor="0.92" vaporized=""/>
    <tripinfo id="veh10" depart="32.00" departLane="184429424#7_0" departPos="4.89" departSpeed="0.00" departDelay="0.24" arrival="147.00" arrivalLane="8149654#1_0" arrivalPos="7.28" arrivalSpeed="7.17" duration="115.00" routeLength="826.56" waitingTime="0.00" waitingCount="0" stopTime="0.00" timeLoss="11.98" rerouteNo="1" devices="tripinfo_veh10 routing_veh10" vType="veh_passenger" speedFactor="0.90" vaporized=""/>
    <tripinfo id="bus0" depart="0.00" departLane="-373389574#4_0" departPos="9.43" departSpeed="0.00" departDelay="0.00" arrival="151.00" arrivalLane="-24684997#0_0" arrivalPos="28.96" arrivalSpeed="8.31" duration="151.00" routeLength="1169.04" waitingTime="0.00" waitingCount="0" stopTime="0.00" timeLoss="19.00" rerouteNo="1" devices="tripinfo_bus0 routing_bus0" vType="bus_bus" speedFactor="1.00" vaporized=""/>
    <tripinfo id="motorcycle0" depart="0.00" departLane="-1052758758#0_0" departPos="2.30" departSpeed="0.00" departDelay="0.00" arrival="155.00" arrivalLane="267542609#1_0" arrivalPos="5.45" arrivalSpeed="6.91" duration="155.00" routeLength="1090.15" waitingTime="0.00" waitingCount="0" stopTime="0.00" timeLoss="29.81" rerouteNo="1" devices="tripinfo_motorcycle0 routing_motorcycle0" vType="motorcycle_motorcycle" speedFactor="1.06" vaporized=""/>
    <tripinfo id="veh4" depart="13.00" departLane="-182690326#8_0" departPos="5.10" departSpeed="0.00" departDelay="0.29" arrival="155.00" arrivalLane="1151940479_0" arrivalPos="21.59" arrivalSpeed="6.75" duration="142.00" routeLength="970.22" waitingTime="0.00" waitingCount="0" stopTime="0.00" timeLoss="15.87" rerouteNo="1" devices="tripinfo_veh4 routing_veh4" vType="veh_passenger" speedFactor="0.85" vaporized=""/>
    <tripinfo id="truck3" depart="29.00" departLane="-4613299#2_0" departPos="7.20" departSpeed="0.00" departDelay="0.41" arrival="156.00" arrivalLane="31145647#2_1" arrivalPos="128.72" arrivalSpeed="14.42" duration="127.00" routeLength="1239.49" waitingTime="1.00" waitingCount="1" stopTime="0.00" timeLoss="22.35" rerouteNo="1" devices="tripinfo_truck3 routing_truck3" vType="truck_truck" speedFactor="1.05" vaporized=""/>
    <tripinfo id="truck0" depart="0.00" departLane="-1139102398#1_0" departPos="6.38" departSpeed="0.00" departDelay="0.00" arrival="160.00" arrivalLane="-4613293#0_0" arrivalPos="89.11" arrivalSpeed="8.39" duration="160.00" routeLength="1178.23" waitingTime="14.00" waitingCount="1" stopTime="0.00" timeLoss="35.13" rerouteNo="1" devices="tripinfo_truck0 routing_truck0" vType="truck_truck" speedFactor="1.02" vaporized=""/>
    <tripinfo id="motorcycle23" depart="110.00" departLane="-184430983#3_0" departPos="2.12" departSpeed="7.90" departDelay="0.41" arrival="160.00" arrivalLane="147657122#3_0" arrivalPos="10.95" arrivalSpeed="7.20" duration="50.00" routeLength="313.94" waitingTime="0.00" waitingCount="0" stopTime="0.00" timeLoss="10.25" rerouteNo="1" devices="tripinfo_motorcycle23 routing_motorcycle23" vType="motorcycle_motorcycle" speedFactor="0.95" vaporized=""/>
    <tripinfo id="veh17" depart="54.00" departLane="24684997#1_0" departPos="5.10" departSpeed="0.00" departDelay="0.00" arrival="162.00" arrivalLane="-717177007#14_0" arrivalPos="23.01" arrivalSpeed="8.21" duration="108.00" routeLength="815.44" waitingTime="0.00" waitingCount="0" stopTime="0.00" timeLoss="14.50" rerouteNo="1" devices="tripinfo_veh17 routing_veh17" vType="veh_passenger" speedFactor="0.99" vaporized=""/>
    <tripinfo id="motorcycle1" depart="5.00" departLane="-147657122#4_0" departPos="2.30" departSpeed="0.00" departDelay="0.24" arrival="165.00" arrivalLane="1098856683#3_0" arrivalPos="31.95" arrivalSpeed="5.91" duration="160.00" routeLength="1050.18" waitingTime="0.00" waitingCount="0" stopTime="0.00" timeLoss="29.47" rerouteNo="1" devices="tripinfo_motorcycle1 routing_motorcycle1" vType="motorcycle_motorcycle" speedFactor="0.94" vaporized=""/>
    <tripinfo id="motorcycle12" depart="58.00" departLane="-8149654#8_0" departPos="2.30" departSpeed="0.00" departDelay="0.82" arrival="172.00" arrivalLane="-1095407474#2_0" arrivalPos="34.88" arrivalSpeed="5.18" duration="114.00" routeLength="829.62" waitingTime="7.00" waitingCount="1" stopTime="0.00" timeLoss="27.05" rerouteNo="1" devices="tripinfo_motorcycle12 routing_motorcycle12" vType="motorcycle_motorcycle" speedFactor="0.88" vaporized=""/>
    <tripinfo id="veh16" depart="51.00" departLane="309300321_4" departPos="5.10" departSpeed="0.00" departDelay="0.18" arrival="172.00" arrivalLane="312651884#2_0" arrivalPos="112.81" arrivalSpeed="7.91" duration="121.00" routeLength="885.59" waitingTime="4.00" waitingCount="1" stopTime="0.00" timeLoss="18.51" rerouteNo="1" devices="tripinfo_veh16 routing_veh16" vType="veh_passenger" speedFactor="1.02" vaporized=""/>
    <tripinfo id="motorcycle8" depart="39.00" departLane="-8149654#7_0" departPos="2.30" departSpeed="0.00" departDelay="0.88" arrival="175.00" arrivalLane="-1140689523#2_0" arrivalPos="0.20" arrivalSpeed="6.08" duration="136.00" routeLength="985.04" waitingTime="3.00" waitingCount="1" stopTime="0.00" timeLoss="29.18" rerouteNo="1" devices="tripinfo_motorcycle8 routing_motorcycle8" vType="motorcycle_motorcycle" speedFactor="1.05" vaporized=""/>
    <tripinfo id="veh12" depart="39.00" departLane="1133761609#0_0" departPos="5.10" departSpeed="0.00" departDelay="0.88" arrival="177.00" arrivalLane="598692947#1_0" arrivalPos="12.93" arrivalSpeed="14.10" duration="138.00" routeLength="1007.19" waitingTime="6.00" waitingCount="1" stopTime="0.00" timeLoss="28.75" rerouteNo="1" devices="tripinfo_veh12 routing_veh12" vType="veh_passenger" speedFactor="1.02" vaporized=""/>
    <tripinfo id="veh0" depart="0.00" departLane="1098856714#3_0" departPos="5.10" departSpeed="0.00" departDelay="0.00" arrival="183.00" arrivalLane="1373064823#0_0" arrivalPos="116.13" arrivalSpeed="13.09" duration="183.00" routeLength="1538.30" waitingTime="3.00" waitingCount="1" stopTime="0.00" timeLoss="26.46" rerouteNo="1" devices="tripinfo_veh0 routing_veh0" vType="veh_passenger" speedFactor="1.01" vaporized=""/>
    <tripinfo id="veh6" depart="20.00" departLane="1052675176#5_0" departPos="5.10" departSpeed="0.00" departDelay="0.94" arrival="187.00" arrivalLane="1095165529_0" arrivalPos="0.20" arrivalSpeed="6.72" duration="167.00" routeLength="1229.99" waitingTime="5.00" waitingCount="1" stopTime="0.00" timeLoss="31.53" rerouteNo="1" devices="tripinfo_veh6 routing_veh6" vType="veh_passenger" speedFactor="1.02" vaporized=""/>
    <tripinfo id="motorcycle4" depart="20.00" departLane="-1052675176#3_0" departPos="2.30" departSpeed="0.00" departDelay="0.94" arrival="188.00" arrivalLane="1052675227#3_0" arrivalPos="7.58" arrivalSpeed="5.33" duration="168.00" routeLength="1022.04" waitingTime="11.00" waitingCount="1" stopTime="0.00" timeLoss="44.05" rerouteNo="1" devices="tripinfo_motorcycle4 routing_motorcycle4" vType="motorcycle_motorcycle" speedFactor="0.94" vaporized=""/>
    <tripinfo id="veh14" depart="45.00" departLane="25558788#0_1" departPos="5.10" departSpeed="15.04" departDelay="0.53" arrival="188.00" arrivalLane="4296469#2_0" arrivalPos="15.62" arrivalSpeed="8.66" duration="143.00" routeLength="1361.76" waitingTime="7.00" waitingCount="2" stopTime="0.00" timeLoss="26.73" rerouteNo="1" devices="tripinfo_veh14 routing_veh14" vType="veh_passenger" speedFactor="1.08" vaporized=""/>
    <tripinfo id="veh9" depart="29.00" departLane="73310497#0_0" departPos="5.10" departSpeed="0.00" departDelay="0.41" arrival="189.00" arrivalLane="-11483256_0" arrivalPos="52.51" arrivalSpeed="8.18" duration="160.00" routeLength="867.74" waitingTime="35.00" waitingCount="2" stopTime="0.00" timeLoss="54.11" rerouteNo="1" devices="tripinfo_veh9 routing_veh9" vType="veh_passenger" speedFactor="1.00" vaporized=""/>
    <tripinfo id="truck2" depart="20.00" departLane="-4296469#1_0" departPos="7.20" departSpeed="0.00" departDelay="0.94" arrival="191.00" arrivalLane="-1141076639_0" arrivalPos="8.42" arrivalSpeed="7.47" duration="171.00" routeLength="1180.92" waitingTime="8.00" waitingCount="2" stopTime="0.00" timeLoss="33.29" rerouteNo="1" devices="tripinfo_truck2 routing_truck2" vType="truck_truck" speedFactor="0.93" vaporized=""/>
    <tripinfo id="veh21" depart="67.00" departLane="-881921235#4_0" departPos="5.10" departSpeed="0.00" departDelay="0.30" arrival="195.00" arrivalLane="44122832#0_1" arrivalPos="15.95" arrivalSpeed="6.85" duration="128.00" routeLength="846.16" waitingTime="0.00" waitingCount="0" stopTime="0.00" timeLoss="15.01" rerouteNo="1" devices="tripinfo_veh21 routing_veh21" vType="veh_passenger" speedFactor="0.91" vaporized=""/>
    <tripinfo id="bus2" depart="39.00" departLane="4613299#0_0" departPos="12.10" departSpeed="0.00" departDelay="0.93" arrival="198.00" arrivalLane="-1122497068_0" arrivalPos="48.28" arrivalSpeed="11.67" duration="159.00" routeLength="1184.29" waitingTime="1.00" waitingCount="1" stopTime="0.00" timeLoss="17.52" rerouteNo="1" devices="tripinfo_bus2 routing_bus2" vType="bus_bus" speedFactor="1.00" vaporized=""/>
    <tripinfo id="veh33" depart="105.00" departLane="-4613293#1_0" departPos="5.10" departSpeed="0.00" departDelay="0.18" arrival="199.00" arrivalLane="268002748#2_0" arrivalPos="9.32" arrivalSpeed="8.35" duration="94.00" routeLength="729.57" waitingTime="0.00" waitingCount="0" stopTime="0.00" timeLoss="11.69" rerouteNo="1" devices="tripinfo_veh33 routing_veh33" vType="veh_passenger" speedFactor="1.09" vaporized=""/>
    <tripinfo id="bus1" depart="20.00" departLane="297373653#10_0" departPos="5.19" departSpeed="0.00" departDelay="0.97" arrival="211.00" arrivalLane="23294727#0_0" arrivalPos="1.09" arrivalSpeed="8.05" duration="191.00" routeLength="1339.25" waitingTime="6.00" waitingCount="2" stopTime="0.00" timeLoss="29.31" rerouteNo="1" devices="tripinfo_bus1 routing_bus1" vType="bus_bus" speedFactor="1.00" vaporized=""/>
    <tripinfo id="truck8" depart="77.00" departLane="-180331460_0" departPos="7.20" departSpeed="0.00" departDelay="0.77" arrival="214.00" arrivalLane="-297373653#10_0" arrivalPos="5.19" arrivalSpeed="7.72" duration="137.00" routeLength="958.21" waitingTime="2.00" waitingCount="1" stopTime="0.00" timeLoss="21.31" rerouteNo="1" devices="tripinfo_truck8 routing_truck8" vType="truck_truck" speedFactor="1.00" vaporized=""/>
    <tripinfo id="veh15" depart="48.00" departLane="1101405300_0" departPos="2.32" departSpeed="6.22" departDelay="0.35" arrival="217.00" arrivalLane="-1052757284#1_0" arrivalPos="32.81" arrivalSpeed="8.68" duration="169.00" routeLength="1069.12" waitingTime="12.00" waitingCount="1" stopTime="0.00" timeLoss="39.33" rerouteNo="1" devices="tripinfo_veh15 routing_veh15" vType="veh_passenger" speedFactor="1.12" vaporized=""/>
    <tripinfo id="veh13" depart="42.00" departLane="-390614076#2_0" departPos="5.10" departSpeed="0.00" departDelay="0.71" arrival="221.00" arrivalLane="-1100646993_0" arrivalPos="146.40" arrivalSpeed="2.16" duration="179.00" routeLength="951.34" waitingTime="21.00" waitingCount="2" stopTime="0.00" timeLoss="57.62" rerouteNo="1" devices="tripinfo_veh13 routing_veh13" vType="veh_passenger" speedFactor="0.97" vaporized=""/>
    <tripinfo id="motorcycle24" depart="115.00" departLane="8149654#2_0" departPos="0.20" departSpeed="0.00" departDelay="0.65" arrival="222.00" arrivalLane="1151940481#0_0" arrivalPos="14.34" arrivalSpeed="7.49" duration="107.00" routeLength="775.38" waitingTime="0.00" waitingCount="0" stopTime="0.00" timeLoss="24.36" rerouteNo="1" devices="tripinfo_motorcycle24 routing_motorcycle24" vType="motorcycle_motorcycle" speedFactor="1.13" vaporized=""/>
    <tripinfo id="motorcycle6" depart="29.00" departLane="1052757284#0_0" departPos="2.30" departSpeed="0.00" departDelay="0.41" arrival="223.00" arrivalLane="-184077630#12_0" arrivalPos="9.50" arrivalSpeed="8.90" duration="194.00" routeLength="1502.80" waitingTime="0.00" waitingCount="0" stopTime="0.00" timeLoss="37.14" rerouteNo="1" devices="tripinfo_motorcycle6 routing_motorcycle6" vType="motorcycle_motorcycle" speedFactor="1.09" vaporized=""/>
    <tripinfo id="veh45" depart="143.00" departLane="34580834#13_0" departPos="5.10" departSpeed="0.00" departDelay="0.06" arrival="224.00" arrivalLane="-4606218#0_0" arrivalPos="1.67" arrivalSpeed="7.23" duration="81.00" routeLength="505.71" waitingTime="0.00" waitingCount="0" stopTime="0.00" timeLoss="11.55" rerouteNo="1" devices="tripinfo_veh45 routing_veh45" vType="veh_passenger" speedFactor="0.89" vaporized=""/>
    <tripinfo id="veh19" depart="61.00" departLane="-34580834#8_0" departPos="5.10" departSpeed="0.00" departDelay="0.65" arrival="227.00" arrivalLane="1121505024#0_1" arrivalPos="54.03" arrivalSpeed="11.63" duration="166.00" routeLength="1080.09" waitingTime="9.00" waitingCount="2" stopTime="0.00" timeLoss="33.25" rerouteNo="1" devices="tripinfo_veh19 routing_veh19" vType="veh_passenger" speedFactor="0.88" vaporized=""/>
    <tripinfo id="motorcycle29" depart="139.00" departLane="-1140689523#0_0" departPos="2.30" departSpeed="0.00" departDelay="0.83" arrival="231.00" arrivalLane="-1316026644_0" arrivalPos="50.12" arrivalSpeed="7.20" duration="92.00" routeLength="561.92" waitingTime="18.00" waitingCount="3" stopTime="0.00" timeLoss="42.12" rerouteNo="1" devices="tripinfo_motorcycle29 routing_motorcycle29" vType="motorcycle_motorcycle" speedFactor="1.17" vaporized=""/>
    <tripinfo id="veh43" depart="137.00" departLane="-1139102398#3_0" departPos="5.10" departSpeed="0.00" departDelay="0.42" arrival="231.00" arrivalLane="1104460750_1" arrivalPos="21.45" arrivalSpeed="13.58" duration="94.00" routeLength="830.22" waitingTime="0.00" waitingCount="0" stopTime="0.00" timeLoss="11.26" rerouteNo="1" devices="tripinfo_veh43 routing_veh43" vType="veh_passenger" speedFactor="1.02" vaporized=""/>
    <tripinfo id="motorcycle33" depart="158.00" departLane="1095165548#0_0" departPos="2.30" departSpeed="0.00" departDelay="0.77" arrival="232.00" arrivalLane="-1052756578#1_0" arrivalPos="32.17" arrivalSpeed="9.27" duration="74.00" routeLength="773.63" waitingTime="0.00" waitingCount="0" stopTime="0.00" timeLoss="10.72" rerouteNo="1" devices="tripinfo_motorcycle33 routing_motorcycle33" vType="motorcycle_motorcycle" speedFactor="1.18" vaporized=""/>
    <tripinfo id="veh5" depart="16.00" departLane="881921235#1_0" departPos="0.20" departSpeed="0.00" departDelay="0.12" arrival="233.00" arrivalLane="295445243_0" arrivalPos="70.56" arrivalSpeed="15.74" duration="217.00" routeLength="1718.94" waitingTime="27.00" waitingCount="2" stopTime="0.00" timeLoss="51.27" rerouteNo="1" devices="tripinfo_veh5 routing_veh5" vType="veh_passenger" speedFactor="1.17" vaporized=""/>
    <tripinfo id="veh24" depart="77.00" departLane="980542375_0" departPos="5.10" departSpeed="0.00" departDelay="0.77" arrival="233.00" arrivalLane="-881921235#1_0" arrivalPos="0.20" arrivalSpeed="7.78" duration="156.00" routeLength="1167.33" waitingTime="0.00" waitingCount="0" stopTime="0.00" timeLoss="17.56" rerouteNo="1" devices="tripinfo_veh24 routing_veh24" vType="veh_passenger" speedFactor="1.02" vaporized=""/>
    <tripinfo id="veh2" depart="7.00" departLane="-34580834#13_0" departPos="5.10" departSpeed="0.00" departDelay="0.65" arrival="240.00" arrivalLane="-1052734946_0" arrivalPos="23.26" arrivalSpeed="7.22" duration="233.00" routeLength="1581.14" waitingTime="0.00" waitingCount="0" stopTime="0.00" timeLoss="24.02" rerouteNo="1" devices="tripinfo_veh2 routing_veh2" vType="veh_passenger" speedFactor="0.88" vaporized=""/>
    <tripinfo id="motorcycle16" depart="77.00" departLane="-1157111072_0" departPos="2.30" departSpeed="8.48" departDelay="0.77" arrival="244.00" arrivalLane="4610356_0" arrivalPos="38.91" arrivalSpeed="5.70" duration="167.00" routeLength="1152.44" waitingTime="0.00" waitingCount="0" stopTime="0.00" timeLoss="30.45" rerouteNo="1" devices="tripinfo_motorcycle16 routing_motorcycle16" vType="motorcycle_motorcycle" speedFactor="1.02" vaporized=""/>
    <tripinfo id="motorcycle15" depart="72.00" departLane="4613300#5_0" departPos="2.30" departSpeed="0.00" departDelay="0.53" arrival="245.00" arrivalLane="1138696720#0_0" arrivalPos="10.57" arrivalSpeed="9.39" duration="173.00" routeLength="1188.32" waitingTime="25.00" waitingCount="2" stopTime="0.00" timeLoss="62.42" rerouteNo="1" devices="tripinfo_motorcycle15 routing_motorcycle15" vType="motorcycle_motorcycle" speedFactor="1.16" vaporized=""/>
    <tripinfo id="truck6" depart="58.00" departLane="-1133992729#3_0" departPos="5.36" departSpeed="0.00" departDelay="0.82" arrival="246.00" arrivalLane="-881921235#0_0" arrivalPos="5.87" arrivalSpeed="7.37" duration="188.00" routeLength="1339.27" waitingTime="17.00" waitingCount="2" stopTime="0.00" timeLoss="45.14" rerouteNo="1" devices="tripinfo_truck6 routing_truck6" vType="truck_truck" speedFactor="0.96" vaporized=""/>
    <tripinfo id="motorcycle3" depart="15.00" departLane="1098856696_0" departPos="2.30" departSpeed="0.00" departDelay="0.71" arrival="247.00" arrivalLane="1133992724#0_0" arrivalPos="40.11" arrivalSpeed="4.90" duration="232.00" routeLength="1370.57" waitingTime="22.00" waitingCount="1" stopTime="0.00" timeLoss="66.37" rerouteNo="1" devices="tripinfo_motorcycle3 routing_motorcycle3" vType="motorcycle_motorcycle" speedFactor="0.89" vaporized=""/>
    <tripinfo id="motorcycle5" depart="24.00" departLane="1141076640#1_0" departPos="2.30" departSpeed="0.00" departDelay="0.18" arrival="248.00" arrivalLane="320894149#2_0" arrivalPos="5.80" arrivalSpeed="6.75" duration="224.00" routeLength="1330.49" waitingTime="7.00" waitingCount="1" stopTime="0.00" timeLoss="53.36" rerouteNo="1" devices="tripinfo_motorcycle5 routing_motorcycle5" vType="motorcycle_motorcycle" speedFactor="0.86" vaporized=""/>
    <tripinfo id="veh11" depart="35.00" departLane="-1095165529_0" departPos="0.20" departSpeed="0.00" departDelay="0.06" arrival="251.00" arrivalLane="1052675176#5_0" arrivalPos="17.27" arrivalSpeed="9.32" duration="216.00" routeLength="1661.83" waitingTime="18.00" waitingCount="2" stopTime="0.00" timeLoss="54.97" rerouteNo="1" devices="tripinfo_veh11 routing_veh11" vType="veh_passenger" speedFactor="1.14" vaporized=""/>
    <tripinfo id="motorcycle30" depart="143.00" departLane="-1140760605#1_1" departPos="2.30" departSpeed="0.00" departDelay="0.06" arrival="252.00" arrivalLane="23294727#0_0" arrivalPos="1.09" arrivalSpeed="7.93" duration="109.00" routeLength="926.33" waitingTime="0.00" waitingCount="0" stopTime="0.00" timeLoss="19.24" rerouteNo="1" devices="tripinfo_motorcycle30 routing_motorcycle30" vType="motorcycle_motorcycle" speedFactor="0.99" vaporized=""/>
    <tripinfo id="veh47" depart="150.00" departLane="-373389574#0_0" departPos="5.10" departSpeed="0.00" departDelay="0.71" arrival="252.00" arrivalLane="295445243_0" arrivalPos="70.56" arrivalSpeed="11.90" duration="102.00" routeLength="840.98" waitingTime="1.00" waitingCount="1" stopTime="0.00" timeLoss="16.20" rerouteNo="1" devices="tripinfo_veh47 routing_veh47" vType="veh_passenger" speedFactor="0.92" vaporized=""/>
    <tripinfo id="motorcycle2" depart="10.00" departLane="238682696#2_0" departPos="2.30" departSpeed="0.00" departDelay="0.47" arrival="254.00" arrivalLane="373389574#5_0" arrivalPos="17.44" arrivalSpeed="8.30" duration="244.00" routeLength="1534.38" waitingTime="35.00" waitingCount="3" stopTime="0.00" timeLoss="80.86" rerouteNo="1" devices="tripinfo_motorcycle2 routing_motorcycle2" vType="motorcycle_motorcycle" speedFactor="1.05" vaporized=""/>
    <tripinfo id="veh20" depart="64.00" departLane="376759635_0" departPos="5.10" departSpeed="0.00" departDelay="0.47" arrival="256.00" arrivalLane="267542609#4_0" arrivalPos="21.58" arrivalSpeed="6.71" duration="192.00" routeLength="1232.60" waitingTime="11.00" waitingCount="2" stopTime="0.00" timeLoss="41.90" rerouteNo="1" devices="tripinfo_veh20 routing_veh20" vType="veh_passenger" speedFactor="0.91" vaporized=""/>
    <tripinfo id="veh39" depart="124.00" departLane="-4790879#1_0" departPos="5.10" departSpeed="0.00" departDelay="0.12" arrival="258.00" arrivalLane="1094434971_0" arrivalPos="37.44" arrivalSpeed="12.37" duration="134.00" routeLength="849.32" waitingTime="7.00" waitingCount="2" stopTime="0.00" timeLoss="31.07" rerouteNo="1" devices="tripinfo_veh39 routing_veh39" vType="veh_passenger" speedFactor="0.98" vaporized=""/>
    <tripinfo id="veh32" depart="102.00" departLane="-4613287_0" departPos="0.20" departSpeed="0.00" departDelay="0.36" arrival="260.00" arrivalLane="-1024034687#0_0" arrivalPos="0.18" arrivalSpeed="8.08" duration="158.00" routeLength="1086.32" waitingTime="9.00" waitingCount="1" stopTime="0.00" timeLoss="26.49" rerouteNo="1" devices="tripinfo_veh32 routing_veh32" vType="veh_passenger" speedFactor="1.01" vaporized=""/>
    <tripinfo id="motorcycle49" depart="234.00" departLane="1133992729#12_0" departPos="2.30" departSpeed="0.00" departDelay="0.54" arrival="261.00" arrivalLane="59546763_0" arrivalPos="13.20" arrivalSpeed="8.37" duration="27.00" routeLength="190.37" waitingTime="0.00" waitingCount="0" stopTime="0.00" timeLoss="3.77" rerouteNo="1" devices="tripinfo_motorcycle49 routing_motorcycle49" vType="motorcycle_motorcycle" speedFactor="1.02" vaporized=""/>
    <tripinfo id="truck9" depart="86.00" departLane="-1140771916#1_0" departPos="7.20" departSpeed="8.29" departDelay="0.24" arrival="267.00" arrivalLane="-1133992729#0_0" arrivalPos="13.66" arrivalSpeed="8.02" duration="181.00" routeLength="1185.22" waitingTime="15.00" waitingCount="3" stopTime="0.00" timeLoss="45.27" rerouteNo="1" devices="tripinfo_truck9 routing_truck9" vType="truck_truck" speedFactor="1.00" vaporized=""/>
    <tripinfo id="bus3" depart="58.00" departLane="-268002748#1_0" departPos="2.52" departSpeed="0.00" departDelay="0.90" arrival="268.00" arrivalLane="1133992722_0" arrivalPos="0.20" arrivalSpeed="6.68" duration="210.00" routeLength="1398.26" waitingTime="23.00" waitingCount="1" stopTime="0.00" timeLoss="56.54" rerouteNo="1" devices="tripinfo_bus3 routing_bus3" vType="bus_bus" speedFactor="1.00" vaporized=""/>
    <tripinfo id="motorcycle17" depart="81.00" departLane="1344278031#1_1" departPos="2.30" departSpeed="0.00" departDelay="0.00" arrival="268.00" arrivalLane="717177006#2_0" arrivalPos="5.19" arrivalSpeed="7.62" duration="187.00" routeLength="1083.90" waitingTime="30.00" waitingCount="2" stopTime="0.00" timeLoss="66.78" rerouteNo="1" devices="tripinfo_motorcycle17 routing_motorcycle17" vType="motorcycle_motorcycle" speedFactor="1.01" vaporized=""/>
    <tripinfo id="veh1" depart="4.00" departLane="4613112_1" departPos="5.10" departSpeed="15.04" departDelay="0.82" arrival="270.00" arrivalLane="-201408461#1_1" arrivalPos="60.83" arrivalSpeed="14.44" duration="266.00" routeLength="1907.55" waitingTime="48.00" waitingCount="2" stopTime="0.00" timeLoss="75.97" rerouteNo="1" devices="tripinfo_veh1 routing_veh1" vType="veh_passenger" speedFactor="1.08" vaporized=""/>
    <tripinfo id="motorcycle42" depart="201.00" departLane="1316026644_0" departPos="2.30" departSpeed="0.00" departDelay="0.89" arrival="274.00" arrivalLane="-34580834#13_0" arrivalPos="31.34" arrivalSpeed="6.95" duration="73.00" routeLength="458.18" waitingTime="0.00" waitingCount="0" stopTime="0.00" timeLoss="16.13" rerouteNo="1" devices="tripinfo_motorcycle42 routing_motorcycle42" vType="motorcycle_motorcycle" speedFactor="1.00" vaporized=""/>
    <tripinfo id="truck4" depart="39.00" departLane="297373653#10_0" departPos="5.19" departSpeed="0.00" departDelay="0.88" arrival="274.00" arrivalLane="-23294727#0_0" arrivalPos="2.04" arrivalSpeed="8.20" duration="235.00" routeLength="1417.47" waitingTime="28.00" waitingCount="3" stopTime="0.00" timeLoss="63.86" rerouteNo="1" devices="tripinfo_truck4 routing_truck4" vType="truck_truck" speedFactor="1.00" vaporized=""/>
    <tripinfo id="motorcycle13" depart="62.00" departLane="-1122497068_0" departPos="2.30" departSpeed="0.00" departDelay="0.06" arrival="275.00" arrivalLane="717177007#4_0" arrivalPos="8.33" arrivalSpeed="5.99" duration="213.00" routeLength="1253.68" waitingTime="16.00" waitingCount="2" stopTime="0.00" timeLoss="55.29" rerouteNo="1" devices="tripinfo_motorcycle13 routing_motorcycle13" vType="motorcycle_motorcycle" speedFactor="0.94" vaporized=""/>
    <tripinfo id="truck5" depart="48.00" departLane="4606258#1_0" departPos="3.42" departSpeed="0.00" departDelay="0.35" arrival="275.00" arrivalLane="268002743#0_0" arrivalPos="12.16" arrivalSpeed="6.15" duration="227.00" routeLength="1536.55" waitingTime="18.00" waitingCount="2" stopTime="0.00" timeLoss="64.29" rerouteNo="1" devices="tripinfo_truck5 routing_truck5" vType="truck_truck" speedFactor="1.05" vaporized=""/>
    <tripinfo id="bus4" depart="77.00" departLane="-1052675228_0" departPos="12.10" departSpeed="0.00" departDelay="0.86" arrival="276.00" arrivalLane="-184077630#9_0" arrivalPos="0.20" arrivalSpeed="8.11" duration="199.00" routeLength="1512.79" waitingTime="1.00" waitingCount="1" stopTime="0.00" timeLoss="27.29" rerouteNo="1" devices="tripinfo_bus4 routing_bus4" vType="bus_bus" speedFactor="1.00" vaporized=""/>
    <tripinfo id="motorcycle10" depart="48.00" departLane="34580834#2_0" departPos="2.30" departSpeed="0.00" departDelay="0.35" arrival="279.00" arrivalLane="1414464698_0" arrivalPos="26.96" arrivalSpeed="7.51" duration="231.00" routeLength="1332.46" waitingTime="22.00" waitingCount="4" stopTime="0.00" timeLoss="76.42" rerouteNo="1" devices="tripinfo_motorcycle10 routing_motorcycle10" vType="motorcycle_motorcycle" speedFactor="0.99" vaporized=""/>